MODEL 1
REMARK VINA RESULT:    -8.186      0.000      0.000
REMARK INTER + INTRA:         -10.603
REMARK INTER:                 -10.340
REMARK INTRA:                  -0.263
REMARK UNBOUND:                -0.263
REMARK SMILES N#C[C@@H]1CCCN1C(=O)CNC12CC3CC(CC(O)(C3)C1)C2
REMARK SMILES IDX 11 1 10 3 8 4 9 5 7 6 1 7 2 8 3 9 4 10 5 11 6 12 12 13 22 14
REMARK SMILES IDX 21 15 13 16 16 17 18 18 14 19 15 20 17 21 20 22 19 23
REMARK H PARENT 11 2 19 24
ROOT
ATOM      1  N   UNL     1      41.663  31.423  12.022  1.00  0.00    -0.303 NA
ATOM      2  H   UNL     1      41.320  32.087  11.322  1.00  0.00    +0.123 HD
ENDROOT
BRANCH   1   3
ATOM      3  C   UNL     1      42.662  32.129  12.841  1.00  0.00    +0.182 C 
BRANCH   3   4
ATOM      4  C   UNL     1      41.967  32.711  14.080  1.00  0.00    +0.237 C 
ATOM      5  O   UNL     1      41.961  32.097  15.149  1.00  0.00    -0.273 OA
BRANCH   4   6
ATOM      6  N   UNL     1      41.379  33.950  13.960  1.00  0.00    -0.326 N 
ATOM      7  N   UNL     1      38.627  33.939  16.070  1.00  0.00    -0.196 NA
ATOM      8  C   UNL     1      39.671  34.257  15.672  1.00  0.00    +0.087 C 
ATOM      9  C   UNL     1      40.979  34.707  15.146  1.00  0.00    +0.189 C 
ATOM     10  C   UNL     1      40.901  36.152  14.638  1.00  0.00    +0.043 C 
ATOM     11  C   UNL     1      40.513  35.991  13.170  1.00  0.00    +0.025 C 
ATOM     12  C   UNL     1      41.291  34.753  12.750  1.00  0.00    +0.121 C 
ENDBRANCH   4   6
ENDBRANCH   3   4
ENDBRANCH   1   3
BRANCH   1  13
ATOM     13  C   UNL     1      42.138  30.207  11.343  1.00  0.00    +0.022 C 
ATOM     14  C   UNL     1      41.535  28.907  11.935  1.00  0.00    +0.026 C 
ATOM     15  C   UNL     1      41.866  30.243   9.820  1.00  0.00    +0.057 C 
ATOM     16  C   UNL     1      43.679  30.160  11.553  1.00  0.00    +0.026 C 
ATOM     17  C   UNL     1      42.140  27.669  11.249  1.00  0.00    -0.006 C 
ATOM     18  C   UNL     1      42.475  29.003   9.138  1.00  0.00    +0.067 C 
ATOM     19  C   UNL     1      44.291  28.924  10.873  1.00  0.00    -0.006 C 
ATOM     20  C   UNL     1      43.661  27.655  11.470  1.00  0.00    +0.007 C 
ATOM     21  C   UNL     1      41.850  27.734   9.741  1.00  0.00    +0.039 C 
ATOM     22  C   UNL     1      43.993  28.979   9.368  1.00  0.00    +0.039 C 
BRANCH  18  23
ATOM     23  O   UNL     1      42.196  29.033   7.744  1.00  0.00    -0.390 OA
ATOM     24  H   UNL     1      41.244  28.871   7.624  1.00  0.00    +0.211 HD
ENDBRANCH  18  23
ENDBRANCH   1  13
TORSDOF 5
ENDMDL
MODEL 2
REMARK VINA RESULT:    -8.115      3.978      7.091
REMARK INTER + INTRA:         -10.513
REMARK INTER:                  -9.694
REMARK INTRA:                  -0.820
REMARK UNBOUND:                -0.263
REMARK SMILES N#C[C@@H]1CCCN1C(=O)CNC12CC3CC(CC(O)(C3)C1)C2
REMARK SMILES IDX 11 1 10 3 8 4 9 5 7 6 1 7 2 8 3 9 4 10 5 11 6 12 12 13 22 14
REMARK SMILES IDX 21 15 13 16 16 17 18 18 14 19 15 20 17 21 20 22 19 23
REMARK H PARENT 11 2 19 24
ROOT
ATOM      1  N   UNL     1      44.227  33.741  14.472  1.00  0.00    -0.303 NA
ATOM      2  H   UNL     1      43.736  34.428  13.893  1.00  0.00    +0.123 HD
ENDROOT
BRANCH   1   3
ATOM      3  C   UNL     1      43.251  32.703  14.840  1.00  0.00    +0.182 C 
BRANCH   3   4
ATOM      4  C   UNL     1      42.021  32.833  13.931  1.00  0.00    +0.237 C 
ATOM      5  O   UNL     1      41.600  31.865  13.294  1.00  0.00    -0.273 OA
BRANCH   4   6
ATOM      6  N   UNL     1      41.393  34.058  13.876  1.00  0.00    -0.326 N 
ATOM      7  N   UNL     1      38.701  33.878  16.055  1.00  0.00    -0.196 NA
ATOM      8  C   UNL     1      39.724  34.244  15.643  1.00  0.00    +0.087 C 
ATOM      9  C   UNL     1      41.004  34.754  15.102  1.00  0.00    +0.189 C 
ATOM     10  C   UNL     1      40.869  36.215  14.655  1.00  0.00    +0.043 C 
ATOM     11  C   UNL     1      40.446  36.100  13.192  1.00  0.00    +0.025 C 
ATOM     12  C   UNL     1      41.249  34.905  12.702  1.00  0.00    +0.121 C 
ENDBRANCH   4   6
ENDBRANCH   3   4
ENDBRANCH   1   3
BRANCH   1  13
ATOM     13  C   UNL     1      44.877  34.433  15.596  1.00  0.00    +0.022 C 
ATOM     14  C   UNL     1      44.821  35.978  15.470  1.00  0.00    +0.026 C 
ATOM     15  C   UNL     1      44.286  34.016  16.964  1.00  0.00    +0.057 C 
ATOM     16  C   UNL     1      46.372  34.004  15.571  1.00  0.00    +0.026 C 
ATOM     17  C   UNL     1      45.599  36.643  16.621  1.00  0.00    -0.006 C 
ATOM     18  C   UNL     1      45.067  34.683  18.111  1.00  0.00    +0.067 C 
ATOM     19  C   UNL     1      47.157  34.666  16.716  1.00  0.00    -0.006 C 
ATOM     20  C   UNL     1      47.068  36.194  16.570  1.00  0.00    +0.007 C 
ATOM     21  C   UNL     1      44.985  36.211  17.962  1.00  0.00    +0.039 C 
ATOM     22  C   UNL     1      46.539  34.246  18.056  1.00  0.00    +0.039 C 
BRANCH  18  23
ATOM     23  O   UNL     1      44.499  34.314  19.361  1.00  0.00    -0.390 OA
ATOM     24  H   UNL     1      43.840  33.616  19.198  1.00  0.00    +0.211 HD
ENDBRANCH  18  23
ENDBRANCH   1  13
TORSDOF 5
ENDMDL
MODEL 3
REMARK VINA RESULT:    -8.099      4.917      7.837
REMARK INTER + INTRA:         -10.493
REMARK INTER:                 -10.026
REMARK INTRA:                  -0.467
REMARK UNBOUND:                -0.263
REMARK SMILES N#C[C@@H]1CCCN1C(=O)CNC12CC3CC(CC(O)(C3)C1)C2
REMARK SMILES IDX 11 1 10 3 8 4 9 5 7 6 1 7 2 8 3 9 4 10 5 11 6 12 12 13 22 14
REMARK SMILES IDX 21 15 13 16 16 17 18 18 14 19 15 20 17 21 20 22 19 23
REMARK H PARENT 11 2 19 24
ROOT
ATOM      1  N   UNL     1      42.843  36.548  16.661  1.00  0.00    -0.303 NA
ATOM      2  H   UNL     1      42.533  37.524  16.681  1.00  0.00    +0.123 HD
ENDROOT
BRANCH   1   3
ATOM      3  C   UNL     1      44.306  36.557  16.511  1.00  0.00    +0.182 C 
BRANCH   3   4
ATOM      4  C   UNL     1      44.940  35.968  17.779  1.00  0.00    +0.237 C 
ATOM      5  O   UNL     1      44.391  35.053  18.395  1.00  0.00    -0.273 OA
BRANCH   4   6
ATOM      6  N   UNL     1      46.153  36.481  18.184  1.00  0.00    -0.326 N 
ATOM      7  N   UNL     1      47.992  33.803  19.399  1.00  0.00    -0.196 NA
ATOM      8  C   UNL     1      47.717  34.680  18.688  1.00  0.00    +0.087 C 
ATOM      9  C   UNL     1      47.405  35.827  17.805  1.00  0.00    +0.189 C 
ATOM     10  C   UNL     1      48.449  36.940  17.958  1.00  0.00    +0.043 C 
ATOM     11  C   UNL     1      47.877  37.811  19.074  1.00  0.00    +0.025 C 
ATOM     12  C   UNL     1      46.383  37.782  18.792  1.00  0.00    +0.121 C 
ENDBRANCH   4   6
ENDBRANCH   3   4
ENDBRANCH   1   3
BRANCH   1  13
ATOM     13  C   UNL     1      42.097  35.826  15.618  1.00  0.00    +0.022 C 
ATOM     14  C   UNL     1      42.910  35.640  14.310  1.00  0.00    +0.026 C 
ATOM     15  C   UNL     1      41.600  34.443  16.104  1.00  0.00    +0.057 C 
ATOM     16  C   UNL     1      40.850  36.694  15.288  1.00  0.00    +0.026 C 
ATOM     17  C   UNL     1      42.047  34.966  13.228  1.00  0.00    -0.006 C 
ATOM     18  C   UNL     1      40.736  33.773  15.019  1.00  0.00    +0.067 C 
ATOM     19  C   UNL     1      39.984  36.028  14.206  1.00  0.00    -0.006 C 
ATOM     20  C   UNL     1      40.822  35.845  12.931  1.00  0.00    +0.007 C 
ATOM     21  C   UNL     1      41.573  33.596  13.741  1.00  0.00    +0.039 C 
ATOM     22  C   UNL     1      39.517  34.656  14.710  1.00  0.00    +0.039 C 
BRANCH  18  23
ATOM     23  O   UNL     1      40.307  32.493  15.466  1.00  0.00    -0.390 OA
ATOM     24  H   UNL     1      39.415  32.589  15.843  1.00  0.00    +0.211 HD
ENDBRANCH  18  23
ENDBRANCH   1  13
TORSDOF 5
ENDMDL
MODEL 4
REMARK VINA RESULT:    -7.751      4.906      7.382
REMARK INTER + INTRA:         -10.052
REMARK INTER:                  -9.564
REMARK INTRA:                  -0.488
REMARK UNBOUND:                -0.263
REMARK SMILES N#C[C@@H]1CCCN1C(=O)CNC12CC3CC(CC(O)(C3)C1)C2
REMARK SMILES IDX 11 1 10 3 8 4 9 5 7 6 1 7 2 8 3 9 4 10 5 11 6 12 12 13 22 14
REMARK SMILES IDX 21 15 13 16 16 17 18 18 14 19 15 20 17 21 20 22 19 23
REMARK H PARENT 11 2 19 24
ROOT
ATOM      1  N   UNL     1      43.649  35.989  16.194  1.00  0.00    -0.303 NA
ATOM      2  H   UNL     1      44.582  35.744  15.849  1.00  0.00    +0.123 HD
ENDROOT
BRANCH   1   3
ATOM      3  C   UNL     1      43.701  35.942  17.663  1.00  0.00    +0.182 C 
BRANCH   3   4
ATOM      4  C   UNL     1      44.953  35.164  18.092  1.00  0.00    +0.237 C 
ATOM      5  O   UNL     1      44.857  34.103  18.712  1.00  0.00    -0.273 OA
BRANCH   4   6
ATOM      6  N   UNL     1      46.179  35.679  17.735  1.00  0.00    -0.326 N 
ATOM      7  N   UNL     1      45.853  39.131  17.813  1.00  0.00    -0.196 NA
ATOM      8  C   UNL     1      46.244  38.084  18.130  1.00  0.00    +0.087 C 
ATOM      9  C   UNL     1      46.790  36.761  18.508  1.00  0.00    +0.189 C 
ATOM     10  C   UNL     1      48.278  36.656  18.154  1.00  0.00    +0.043 C 
ATOM     11  C   UNL     1      48.266  36.099  16.732  1.00  0.00    +0.025 C 
ATOM     12  C   UNL     1      47.106  35.116  16.766  1.00  0.00    +0.121 C 
ENDBRANCH   4   6
ENDBRANCH   3   4
ENDBRANCH   1   3
BRANCH   1  13
ATOM     13  C   UNL     1      42.654  35.109  15.561  1.00  0.00    +0.022 C 
ATOM     14  C   UNL     1      43.242  33.741  15.128  1.00  0.00    +0.026 C 
ATOM     15  C   UNL     1      41.425  34.866  16.470  1.00  0.00    +0.057 C 
ATOM     16  C   UNL     1      42.164  35.847  14.282  1.00  0.00    +0.026 C 
ATOM     17  C   UNL     1      42.180  32.906  14.389  1.00  0.00    -0.006 C 
ATOM     18  C   UNL     1      40.365  34.031  15.726  1.00  0.00    +0.067 C 
ATOM     19  C   UNL     1      41.105  35.018  13.537  1.00  0.00    -0.006 C 
ATOM     20  C   UNL     1      41.715  33.665  13.136  1.00  0.00    +0.007 C 
ATOM     21  C   UNL     1      40.978  32.680  15.319  1.00  0.00    +0.039 C 
ATOM     22  C   UNL     1      39.907  34.781  14.466  1.00  0.00    +0.039 C 
BRANCH  18  23
ATOM     23  O   UNL     1      39.254  33.791  16.579  1.00  0.00    -0.390 OA
ATOM     24  H   UNL     1      39.566  33.279  17.345  1.00  0.00    +0.211 HD
ENDBRANCH  18  23
ENDBRANCH   1  13
TORSDOF 5
ENDMDL
MODEL 5
REMARK VINA RESULT:    -7.647      1.376      2.090
REMARK INTER + INTRA:          -9.921
REMARK INTER:                  -9.328
REMARK INTRA:                  -0.593
REMARK UNBOUND:                -0.263
REMARK SMILES N#C[C@@H]1CCCN1C(=O)CNC12CC3CC(CC(O)(C3)C1)C2
REMARK SMILES IDX 11 1 10 3 8 4 9 5 7 6 1 7 2 8 3 9 4 10 5 11 6 12 12 13 22 14
REMARK SMILES IDX 21 15 13 16 16 17 18 18 14 19 15 20 17 21 20 22 19 23
REMARK H PARENT 11 2 19 24
ROOT
ATOM      1  N   UNL     1      42.190  31.986  12.917  1.00  0.00    -0.303 NA
ATOM      2  H   UNL     1      42.813  32.706  12.538  1.00  0.00    +0.123 HD
ENDROOT
BRANCH   1   3
ATOM      3  C   UNL     1      42.489  31.862  14.352  1.00  0.00    +0.182 C 
BRANCH   3   4
ATOM      4  C   UNL     1      41.516  32.749  15.141  1.00  0.00    +0.237 C 
ATOM      5  O   UNL     1      40.397  32.339  15.454  1.00  0.00    -0.273 OA
BRANCH   4   6
ATOM      6  N   UNL     1      41.950  34.004  15.507  1.00  0.00    -0.326 N 
ATOM      7  N   UNL     1      42.114  35.875  12.592  1.00  0.00    -0.196 NA
ATOM      8  C   UNL     1      41.735  35.562  13.644  1.00  0.00    +0.087 C 
ATOM      9  C   UNL     1      41.278  35.203  15.006  1.00  0.00    +0.189 C 
ATOM     10  C   UNL     1      41.673  36.283  16.021  1.00  0.00    +0.043 C 
ATOM     11  C   UNL     1      43.049  35.830  16.505  1.00  0.00    +0.025 C 
ATOM     12  C   UNL     1      42.905  34.317  16.559  1.00  0.00    +0.121 C 
ENDBRANCH   4   6
ENDBRANCH   3   4
ENDBRANCH   1   3
BRANCH   1  13
ATOM     13  C   UNL     1      42.338  30.755  12.125  1.00  0.00    +0.022 C 
ATOM     14  C   UNL     1      41.687  29.518  12.799  1.00  0.00    +0.026 C 
ATOM     15  C   UNL     1      41.769  30.907  10.693  1.00  0.00    +0.057 C 
ATOM     16  C   UNL     1      43.866  30.488  12.006  1.00  0.00    +0.026 C 
ATOM     17  C   UNL     1      41.957  28.247  11.972  1.00  0.00    -0.006 C 
ATOM     18  C   UNL     1      42.042  29.634   9.870  1.00  0.00    +0.067 C 
ATOM     19  C   UNL     1      44.143  29.219  11.184  1.00  0.00    -0.006 C 
ATOM     20  C   UNL     1      43.473  28.017  11.870  1.00  0.00    +0.007 C 
ATOM     21  C   UNL     1      41.378  28.431  10.560  1.00  0.00    +0.039 C 
ATOM     22  C   UNL     1      43.556  29.393   9.777  1.00  0.00    +0.039 C 
BRANCH  18  23
ATOM     23  O   UNL     1      41.492  29.775   8.566  1.00  0.00    -0.390 OA
ATOM     24  H   UNL     1      40.574  29.454   8.590  1.00  0.00    +0.211 HD
ENDBRANCH  18  23
ENDBRANCH   1  13
TORSDOF 5
ENDMDL
MODEL 6
REMARK VINA RESULT:    -7.585      2.046      7.332
REMARK INTER + INTRA:          -9.843
REMARK INTER:                  -9.364
REMARK INTRA:                  -0.479
REMARK UNBOUND:                -0.263
REMARK SMILES N#C[C@@H]1CCCN1C(=O)CNC12CC3CC(CC(O)(C3)C1)C2
REMARK SMILES IDX 11 1 10 3 8 4 9 5 7 6 1 7 2 8 3 9 4 10 5 11 6 12 12 13 22 14
REMARK SMILES IDX 21 15 13 16 16 17 18 18 14 19 15 20 17 21 20 22 19 23
REMARK H PARENT 11 2 19 24
ROOT
ATOM      1  N   UNL     1      42.562  31.669  13.324  1.00  0.00    -0.303 NA
ATOM      2  H   UNL     1      43.575  31.609  13.183  1.00  0.00    +0.123 HD
ENDROOT
BRANCH   1   3
ATOM      3  C   UNL     1      41.926  31.472  12.012  1.00  0.00    +0.182 C 
BRANCH   3   4
ATOM      4  C   UNL     1      41.631  29.978  11.822  1.00  0.00    +0.237 C 
ATOM      5  O   UNL     1      40.616  29.468  12.300  1.00  0.00    -0.273 OA
BRANCH   4   6
ATOM      6  N   UNL     1      42.524  29.239  11.078  1.00  0.00    -0.326 N 
ATOM      7  N   UNL     1      40.815  28.201   8.244  1.00  0.00    -0.196 NA
ATOM      8  C   UNL     1      41.613  28.773   8.865  1.00  0.00    +0.087 C 
ATOM      9  C   UNL     1      42.667  29.467   9.640  1.00  0.00    +0.189 C 
ATOM     10  C   UNL     1      44.053  28.891   9.324  1.00  0.00    +0.043 C 
ATOM     11  C   UNL     1      44.215  27.773  10.352  1.00  0.00    +0.025 C 
ATOM     12  C   UNL     1      43.562  28.360  11.594  1.00  0.00    +0.121 C 
ENDBRANCH   4   6
ENDBRANCH   3   4
ENDBRANCH   1   3
BRANCH   1  13
ATOM     13  C   UNL     1      42.244  32.935  14.004  1.00  0.00    +0.022 C 
ATOM     14  C   UNL     1      41.635  33.999  13.054  1.00  0.00    +0.026 C 
ATOM     15  C   UNL     1      41.293  32.730  15.208  1.00  0.00    +0.057 C 
ATOM     16  C   UNL     1      43.591  33.492  14.549  1.00  0.00    +0.026 C 
ATOM     17  C   UNL     1      41.414  35.327  13.800  1.00  0.00    -0.006 C 
ATOM     18  C   UNL     1      41.076  34.061  15.952  1.00  0.00    +0.067 C 
ATOM     19  C   UNL     1      43.379  34.821  15.293  1.00  0.00    -0.006 C 
ATOM     20  C   UNL     1      42.761  35.846  14.328  1.00  0.00    +0.007 C 
ATOM     21  C   UNL     1      40.465  35.089  14.985  1.00  0.00    +0.039 C 
ATOM     22  C   UNL     1      42.422  34.590  16.470  1.00  0.00    +0.039 C 
BRANCH  18  23
ATOM     23  O   UNL     1      40.180  33.867  17.039  1.00  0.00    -0.390 OA
ATOM     24  H   UNL     1      40.306  34.598  17.668  1.00  0.00    +0.211 HD
ENDBRANCH  18  23
ENDBRANCH   1  13
TORSDOF 5
ENDMDL
MODEL 7
REMARK VINA RESULT:    -7.459      5.627      8.583
REMARK INTER + INTRA:          -9.684
REMARK INTER:                  -9.118
REMARK INTRA:                  -0.566
REMARK UNBOUND:                -0.263
REMARK SMILES N#C[C@@H]1CCCN1C(=O)CNC12CC3CC(CC(O)(C3)C1)C2
REMARK SMILES IDX 11 1 10 3 8 4 9 5 7 6 1 7 2 8 3 9 4 10 5 11 6 12 12 13 22 14
REMARK SMILES IDX 21 15 13 16 16 17 18 18 14 19 15 20 17 21 20 22 19 23
REMARK H PARENT 11 2 19 24
ROOT
ATOM      1  N   UNL     1      45.206  35.755  15.607  1.00  0.00    -0.303 NA
ATOM      2  H   UNL     1      44.846  36.656  15.279  1.00  0.00    +0.123 HD
ENDROOT
BRANCH   1   3
ATOM      3  C   UNL     1      44.045  34.885  15.854  1.00  0.00    +0.182 C 
BRANCH   3   4
ATOM      4  C   UNL     1      42.767  35.733  15.795  1.00  0.00    +0.237 C 
ATOM      5  O   UNL     1      42.482  36.512  16.706  1.00  0.00    -0.273 OA
BRANCH   4   6
ATOM      6  N   UNL     1      41.970  35.611  14.678  1.00  0.00    -0.326 N 
ATOM      7  N   UNL     1      39.107  33.938  15.693  1.00  0.00    -0.196 NA
ATOM      8  C   UNL     1      39.748  34.822  15.294  1.00  0.00    +0.087 C 
ATOM      9  C   UNL     1      40.546  35.937  14.736  1.00  0.00    +0.189 C 
ATOM     10  C   UNL     1      40.179  36.197  13.270  1.00  0.00    +0.043 C 
ATOM     11  C   UNL     1      41.140  35.296  12.499  1.00  0.00    +0.025 C 
ATOM     12  C   UNL     1      42.422  35.397  13.312  1.00  0.00    +0.121 C 
ENDBRANCH   4   6
ENDBRANCH   3   4
ENDBRANCH   1   3
BRANCH   1  13
ATOM     13  C   UNL     1      46.092  35.980  16.760  1.00  0.00    +0.022 C 
ATOM     14  C   UNL     1      46.121  37.460  17.222  1.00  0.00    +0.026 C 
ATOM     15  C   UNL     1      45.726  35.081  17.965  1.00  0.00    +0.057 C 
ATOM     16  C   UNL     1      47.526  35.595  16.294  1.00  0.00    +0.026 C 
ATOM     17  C   UNL     1      47.135  37.650  18.365  1.00  0.00    -0.006 C 
ATOM     18  C   UNL     1      46.743  35.274  19.106  1.00  0.00    +0.067 C 
ATOM     19  C   UNL     1      48.545  35.784  17.430  1.00  0.00    -0.006 C 
ATOM     20  C   UNL     1      48.537  37.256  17.875  1.00  0.00    +0.007 C 
ATOM     21  C   UNL     1      46.741  36.747  19.545  1.00  0.00    +0.039 C 
ATOM     22  C   UNL     1      48.148  34.893  18.615  1.00  0.00    +0.039 C 
BRANCH  18  23
ATOM     23  O   UNL     1      46.382  34.464  20.217  1.00  0.00    -0.390 OA
ATOM     24  H   UNL     1      46.577  34.962  21.029  1.00  0.00    +0.211 HD
ENDBRANCH  18  23
ENDBRANCH   1  13
TORSDOF 5
ENDMDL
MODEL 8
REMARK VINA RESULT:    -7.260      1.693      2.470
REMARK INTER + INTRA:          -9.432
REMARK INTER:                  -8.895
REMARK INTRA:                  -0.537
REMARK UNBOUND:                -0.263
REMARK SMILES N#C[C@@H]1CCCN1C(=O)CNC12CC3CC(CC(O)(C3)C1)C2
REMARK SMILES IDX 11 1 10 3 8 4 9 5 7 6 1 7 2 8 3 9 4 10 5 11 6 12 12 13 22 14
REMARK SMILES IDX 21 15 13 16 16 17 18 18 14 19 15 20 17 21 20 22 19 23
REMARK H PARENT 11 2 19 24
ROOT
ATOM      1  N   UNL     1      43.332  31.708  12.861  1.00  0.00    -0.303 NA
ATOM      2  H   UNL     1      44.164  31.596  13.448  1.00  0.00    +0.123 HD
ENDROOT
BRANCH   1   3
ATOM      3  C   UNL     1      42.216  32.064  13.750  1.00  0.00    +0.182 C 
BRANCH   3   4
ATOM      4  C   UNL     1      41.811  33.520  13.481  1.00  0.00    +0.237 C 
ATOM      5  O   UNL     1      41.508  33.893  12.346  1.00  0.00    -0.273 OA
BRANCH   4   6
ATOM      6  N   UNL     1      41.773  34.382  14.555  1.00  0.00    -0.326 N 
ATOM      7  N   UNL     1      38.682  33.933  16.062  1.00  0.00    -0.196 NA
ATOM      8  C   UNL     1      39.839  33.909  15.962  1.00  0.00    +0.087 C 
ATOM      9  C   UNL     1      41.317  33.923  15.866  1.00  0.00    +0.189 C 
ATOM     10  C   UNL     1      41.922  34.947  16.834  1.00  0.00    +0.043 C 
ATOM     11  C   UNL     1      41.987  36.225  16.001  1.00  0.00    +0.025 C 
ATOM     12  C   UNL     1      42.364  35.710  14.621  1.00  0.00    +0.121 C 
ENDBRANCH   4   6
ENDBRANCH   3   4
ENDBRANCH   1   3
BRANCH   1  13
ATOM     13  C   UNL     1      43.144  30.491  12.055  1.00  0.00    +0.022 C 
ATOM     14  C   UNL     1      44.481  29.847  11.606  1.00  0.00    +0.026 C 
ATOM     15  C   UNL     1      42.293  29.427  12.789  1.00  0.00    +0.057 C 
ATOM     16  C   UNL     1      42.368  30.925  10.778  1.00  0.00    +0.026 C 
ATOM     17  C   UNL     1      44.219  28.638  10.689  1.00  0.00    -0.006 C 
ATOM     18  C   UNL     1      42.032  28.220  11.868  1.00  0.00    +0.067 C 
ATOM     19  C   UNL     1      42.104  29.723   9.856  1.00  0.00    -0.006 C 
ATOM     20  C   UNL     1      43.448  29.100   9.443  1.00  0.00    +0.007 C 
ATOM     21  C   UNL     1      43.376  27.602  11.449  1.00  0.00    +0.039 C 
ATOM     22  C   UNL     1      41.273  28.681  10.615  1.00  0.00    +0.039 C 
BRANCH  18  23
ATOM     23  O   UNL     1      41.273  27.239  12.562  1.00  0.00    -0.390 OA
ATOM     24  H   UNL     1      41.162  26.471  11.974  1.00  0.00    +0.211 HD
ENDBRANCH  18  23
ENDBRANCH   1  13
TORSDOF 5
ENDMDL
MODEL 9
REMARK VINA RESULT:    -7.146      4.672      7.463
REMARK INTER + INTRA:          -9.289
REMARK INTER:                  -8.658
REMARK INTRA:                  -0.632
REMARK UNBOUND:                -0.263
REMARK SMILES N#C[C@@H]1CCCN1C(=O)CNC12CC3CC(CC(O)(C3)C1)C2
REMARK SMILES IDX 11 1 10 3 8 4 9 5 7 6 1 7 2 8 3 9 4 10 5 11 6 12 12 13 22 14
REMARK SMILES IDX 21 15 13 16 16 17 18 18 14 19 15 20 17 21 20 22 19 23
REMARK H PARENT 11 2 19 24
ROOT
ATOM      1  N   UNL     1      44.237  35.282  14.519  1.00  0.00    -0.303 NA
ATOM      2  H   UNL     1      44.715  35.614  13.676  1.00  0.00    +0.123 HD
ENDROOT
BRANCH   1   3
ATOM      3  C   UNL     1      43.051  36.131  14.710  1.00  0.00    +0.182 C 
BRANCH   3   4
ATOM      4  C   UNL     1      41.926  35.625  13.796  1.00  0.00    +0.237 C 
ATOM      5  O   UNL     1      42.000  35.750  12.573  1.00  0.00    -0.273 OA
BRANCH   4   6
ATOM      6  N   UNL     1      40.850  35.004  14.391  1.00  0.00    -0.326 N 
ATOM      7  N   UNL     1      41.549  31.607  14.378  1.00  0.00    -0.196 NA
ATOM      8  C   UNL     1      41.351  32.659  14.830  1.00  0.00    +0.087 C 
ATOM      9  C   UNL     1      41.051  33.983  15.420  1.00  0.00    +0.189 C 
ATOM     10  C   UNL     1      39.712  33.962  16.167  1.00  0.00    +0.043 C 
ATOM     11  C   UNL     1      38.700  34.356  15.094  1.00  0.00    +0.025 C 
ATOM     12  C   UNL     1      39.454  35.401  14.286  1.00  0.00    +0.121 C 
ENDBRANCH   4   6
ENDBRANCH   3   4
ENDBRANCH   1   3
BRANCH   1  13
ATOM     13  C   UNL     1      45.193  35.259  15.638  1.00  0.00    +0.022 C 
ATOM     14  C   UNL     1      45.335  36.633  16.343  1.00  0.00    +0.026 C 
ATOM     15  C   UNL     1      44.834  34.184  16.693  1.00  0.00    +0.057 C 
ATOM     16  C   UNL     1      46.575  34.888  15.029  1.00  0.00    +0.026 C 
ATOM     17  C   UNL     1      46.415  36.570  17.439  1.00  0.00    -0.006 C 
ATOM     18  C   UNL     1      45.918  34.124  17.786  1.00  0.00    +0.067 C 
ATOM     19  C   UNL     1      47.660  34.825  16.116  1.00  0.00    -0.006 C 
ATOM     20  C   UNL     1      47.764  36.196  16.805  1.00  0.00    +0.007 C 
ATOM     21  C   UNL     1      46.027  35.497  18.470  1.00  0.00    +0.039 C 
ATOM     22  C   UNL     1      47.271  33.763  17.154  1.00  0.00    +0.039 C 
BRANCH  18  23
ATOM     23  O   UNL     1      45.565  33.153  18.763  1.00  0.00    -0.390 OA
ATOM     24  H   UNL     1      46.354  32.616  18.953  1.00  0.00    +0.211 HD
ENDBRANCH  18  23
ENDBRANCH   1  13
TORSDOF 5
ENDMDL
