REMARK SMILES CC(C)[C@H](N)C(=O)N1CCCC1B(O)O
REMARK SMILES IDX 8 1 9 2 10 3 11 4 12 5 6 6 7 7 4 8 2 9 1 10 3 11 5 12 13 15
REMARK SMILES IDX 14 16 15 18
REMARK H PARENT 5 13 5 14 14 17 15 19
ROOT
ATOM      1  N   UNL     1      -0.557  -0.013   1.013  1.00  0.00    -0.340 N 
ATOM      2  C   UNL     1      -0.247   1.234   1.687  1.00  0.00    +0.119 C 
ATOM      3  C   UNL     1      -1.103   2.168   0.818  1.00  0.00    +0.023 C 
ATOM      4  C   UNL     1      -2.443   1.442   1.002  1.00  0.00    +0.024 C 
ATOM      5  C   UNL     1      -2.036  -0.036   1.021  1.00  0.00    +0.117 C 
ENDROOT
BRANCH   1   6
ATOM      6  C   UNL     1       0.264  -1.008   0.448  1.00  0.00    +0.239 C 
ATOM      7  O   UNL     1      -0.335  -2.035  -0.053  1.00  0.00    -0.273 OA
BRANCH   6   8
ATOM      8  C   UNL     1       1.718  -1.018   0.364  1.00  0.00    +0.144 C 
BRANCH   8   9
ATOM      9  C   UNL     1       2.323  -0.238  -0.777  1.00  0.00    +0.009 C 
ATOM     10  C   UNL     1       1.801  -0.622  -2.127  1.00  0.00    +0.009 C 
ATOM     11  C   UNL     1       2.450   1.235  -0.540  1.00  0.00    +0.009 C 
ENDBRANCH   8   9
BRANCH   8  12
ATOM     12  N   UNL     1       2.087  -2.424   0.047  1.00  0.00    -0.320 NA
ATOM     13  H   UNL     1       3.131  -2.463  -0.003  1.00  0.00    +0.119 HD
ATOM     14  H   UNL     1       1.703  -2.659  -0.898  1.00  0.00    +0.119 HD
ENDBRANCH   8  12
ENDBRANCH   6   8
ENDBRANCH   1   6
BRANCH   5  15
ATOM     15  B   UNL     1      -2.596  -0.672  -0.306  1.00  0.00    +0.475 B 
BRANCH  15  16
ATOM     16  O   UNL     1      -3.536  -1.806  -0.153  1.00  0.00    -0.426 OA
ATOM     17  H   UNL     1      -4.153  -1.604   0.616  1.00  0.00    +0.189 HD
ENDBRANCH  15  16
BRANCH  15  18
ATOM     18  O   UNL     1      -2.818   0.163  -1.487  1.00  0.00    -0.426 OA
ATOM     19  H   UNL     1      -3.795   0.256  -1.677  1.00  0.00    +0.189 HD
ENDBRANCH  15  18
ENDBRANCH   5  15
TORSDOF 7
