REMARK SMILES Cc1cc(N2CCN([C@@H]3CN[C@H](C(=O)N4CCSC4)C3)CC2)n(-c2ccccc2)n1
REMARK SMILES IDX 5 1 6 2 7 3 8 4 21 5 22 6 4 7 2 8 3 9 30 10 23 11 1 12 24 13
REMARK SMILES IDX 25 14 29 15 26 16 28 17 27 18 9 19 10 20 20 21 11 22 12 23
REMARK SMILES IDX 13 25 14 26 15 27 16 28 19 29 17 30 18 31
REMARK H PARENT 11 24
ROOT
ATOM      1  N   UNL     1      -2.321  -0.566  -0.290  1.00  0.00    -0.354 N 
ATOM      2  C   UNL     1      -1.406   0.150   0.643  1.00  0.00    +0.133 C 
ATOM      3  C   UNL     1       0.011   0.279   0.043  1.00  0.00    +0.106 C 
ATOM      4  N   UNL     1       0.676  -1.024  -0.204  1.00  0.00    -0.296 NA
ATOM      5  C   UNL     1      -0.323  -2.065  -0.541  1.00  0.00    +0.106 C 
ATOM      6  C   UNL     1      -1.630  -1.535  -1.172  1.00  0.00    +0.133 C 
ENDROOT
BRANCH   1   7
ATOM      7  C   UNL     1      -3.533  -0.924   0.258  1.00  0.00    +0.132 A 
ATOM      8  C   UNL     1      -5.201  -1.937   1.323  1.00  0.00    +0.062 A 
ATOM      9  C   UNL     1      -3.978  -2.164   0.668  1.00  0.00    +0.072 A 
ATOM     10  N   UNL     1      -5.535  -0.647   1.320  1.00  0.00    -0.171 NA
ATOM     11  N   UNL     1      -4.574  -0.029   0.568  1.00  0.00    -0.217 N 
ATOM     12  C   UNL     1      -6.073  -2.929   1.996  1.00  0.00    +0.069 C 
BRANCH  11  13
ATOM     13  C   UNL     1      -4.760   1.337   0.189  1.00  0.00    +0.067 A 
ATOM     14  C   UNL     1      -4.009   1.930  -0.833  1.00  0.00    +0.028 A 
ATOM     15  C   UNL     1      -5.756   2.095   0.828  1.00  0.00    +0.028 A 
ATOM     16  C   UNL     1      -4.229   3.265  -1.188  1.00  0.00    +0.002 A 
ATOM     17  C   UNL     1      -5.970   3.429   0.472  1.00  0.00    +0.002 A 
ATOM     18  C   UNL     1      -5.204   4.014  -0.533  1.00  0.00    +0.000 A 
ENDBRANCH  11  13
ENDBRANCH   1   7
BRANCH   4  19
ATOM     19  C   UNL     1       1.769  -0.912  -1.182  1.00  0.00    +0.072 C 
ATOM     20  C   UNL     1       2.620  -2.173  -1.399  1.00  0.00    +0.100 C 
ATOM     21  C   UNL     1       2.844   0.110  -0.781  1.00  0.00    +0.049 C 
ATOM     22  N   UNL     1       3.819  -1.671  -2.087  1.00  0.00    -0.304 NA
ATOM     23  C   UNL     1       4.153  -0.410  -1.382  1.00  0.00    +0.145 C 
ATOM     24  H   UNL     1       3.571  -1.452  -3.052  1.00  0.00    +0.123 HD
BRANCH  23  25
ATOM     25  C   UNL     1       5.210  -0.648  -0.268  1.00  0.00    +0.240 C 
ATOM     26  O   UNL     1       5.455  -1.766   0.191  1.00  0.00    -0.273 OA
BRANCH  25  27
ATOM     27  N   UNL     1       5.841   0.480   0.242  1.00  0.00    -0.331 N 
ATOM     28  C   UNL     1       6.881   0.322   1.247  1.00  0.00    +0.131 C 
ATOM     29  C   UNL     1       5.857   1.772  -0.407  1.00  0.00    +0.189 C 
ATOM     30  C   UNL     1       7.077   1.658   1.938  1.00  0.00    +0.093 C 
ATOM     31  S   UNL     1       6.857   2.876   0.617  1.00  0.00    -0.139 SA
ENDBRANCH  25  27
ENDBRANCH  23  25
ENDBRANCH   4  19
TORSDOF 5
