REMARK SMILES Cn1c(=O)c2c(nc(N3CCOCC3)n2Cc2ccccc2)n(C)c1=O
REMARK SMILES IDX 1 1 2 2 3 3 4 4 5 5 6 6 7 7 8 8 15 9 23 10 24 11 25 12 26 13
REMARK SMILES IDX 16 14 17 15 18 16 22 17 19 18 21 19 20 20 9 21 10 22 14 23
REMARK SMILES IDX 11 24 13 25 12 26
REMARK H PARENT
ROOT
ATOM      1  C   UNL     1       4.954   0.597   0.975  1.00  0.00    +0.159 C 
ATOM      2  N   UNL     1       3.701   0.002   0.553  1.00  0.00    -0.261 N 
ATOM      3  C   UNL     1       2.522   0.510   1.109  1.00  0.00    +0.282 C 
ATOM      4  O   UNL     1       2.495   1.395   1.959  1.00  0.00    -0.267 OA
ATOM      5  C   UNL     1       1.354  -0.135   0.617  1.00  0.00    +0.154 A 
ATOM      6  C   UNL     1       1.401  -1.194  -0.237  1.00  0.00    +0.170 A 
ATOM      7  N   UNL     1       0.163  -1.665  -0.538  1.00  0.00    -0.194 NA
ATOM      8  C   UNL     1      -0.666  -0.896   0.137  1.00  0.00    +0.208 A 
ATOM      9  N   UNL     1       0.017   0.096   0.819  1.00  0.00    -0.300 N 
ATOM     10  N   UNL     1       2.590  -1.706  -0.700  1.00  0.00    -0.279 N 
ATOM     11  C   UNL     1       2.591  -2.856  -1.586  1.00  0.00    +0.157 C 
ATOM     12  C   UNL     1       3.789  -1.119  -0.296  1.00  0.00    +0.332 C 
ATOM     13  O   UNL     1       4.884  -1.562  -0.655  1.00  0.00    -0.247 OA
ENDROOT
BRANCH   9  14
ATOM     14  C   UNL     1      -0.571   1.193   1.571  1.00  0.00    +0.161 C 
BRANCH  14  15
ATOM     15  C   UNL     1      -0.674   2.452   0.743  1.00  0.00    -0.028 A 
ATOM     16  C   UNL     1       0.200   3.527   0.962  1.00  0.00    +0.005 A 
ATOM     17  C   UNL     1      -1.647   2.569  -0.261  1.00  0.00    +0.005 A 
ATOM     18  C   UNL     1       0.105   4.688   0.192  1.00  0.00    +0.000 A 
ATOM     19  C   UNL     1      -1.741   3.731  -1.029  1.00  0.00    +0.000 A 
ATOM     20  C   UNL     1      -0.864   4.789  -0.803  1.00  0.00    +0.000 A 
ENDBRANCH  14  15
ENDBRANCH   9  14
BRANCH   8  21
ATOM     21  N   UNL     1      -2.024  -1.000   0.183  1.00  0.00    -0.338 N 
ATOM     22  C   UNL     1      -2.646  -1.408  -1.108  1.00  0.00    +0.148 C 
ATOM     23  C   UNL     1      -2.515  -1.824   1.323  1.00  0.00    +0.148 C 
ATOM     24  C   UNL     1      -3.042  -2.890  -1.094  1.00  0.00    +0.181 C 
ATOM     25  C   UNL     1      -3.938  -2.336   1.058  1.00  0.00    +0.181 C 
ATOM     26  O   UNL     1      -4.025  -3.196  -0.088  1.00  0.00    -0.378 OA
ENDBRANCH   8  21
TORSDOF 3
