REMARK SMILES CCCCC[C@H](CC(=O)NO)C(=O)N[C@H](C(=O)N1CCC[C@H]1CO)C(C)C
REMARK SMILES IDX 12 1 13 2 14 3 6 5 5 6 4 7 3 8 2 9 1 10 7 11 8 12 9 13 10 14
REMARK SMILES IDX 11 16 15 18 16 19 17 20 18 21 19 22 22 23 20 24 21 25 23 26
REMARK SMILES IDX 24 27 25 29 26 30 27 31
REMARK H PARENT 14 4 10 15 11 17 24 28
ROOT
ATOM      1  C   UNL     1      -0.694   0.069   0.020  1.00  0.00    +0.224 C 
ATOM      2  O   UNL     1      -0.701  -1.156  -0.062  1.00  0.00    -0.275 OA
ATOM      3  N   UNL     1       0.406   0.837  -0.298  1.00  0.00    -0.344 N 
ATOM      4  H   UNL     1       0.457   1.758   0.131  1.00  0.00    +0.164 HD
ENDROOT
BRANCH   1   5
ATOM      5  C   UNL     1      -1.913   0.891   0.440  1.00  0.00    +0.088 C 
BRANCH   5   6
ATOM      6  C   UNL     1      -2.999   0.006   1.094  1.00  0.00    +0.014 C 
BRANCH   6   7
ATOM      7  C   UNL     1      -3.874  -0.788   0.115  1.00  0.00    +0.001 C 
BRANCH   7   8
ATOM      8  C   UNL     1      -4.731  -1.828   0.840  1.00  0.00    -0.000 C 
BRANCH   8   9
ATOM      9  C   UNL     1      -5.674  -2.535  -0.134  1.00  0.00    -0.003 C 
ATOM     10  C   UNL     1      -6.476  -3.626   0.556  1.00  0.00    +0.004 C 
ENDBRANCH   8   9
ENDBRANCH   7   8
ENDBRANCH   6   7
ENDBRANCH   5   6
BRANCH   5  11
ATOM     11  C   UNL     1      -2.412   1.713  -0.755  1.00  0.00    +0.115 C 
BRANCH  11  12
ATOM     12  C   UNL     1      -3.383   2.790  -0.327  1.00  0.00    +0.244 C 
ATOM     13  O   UNL     1      -3.226   3.490   0.671  1.00  0.00    -0.273 OA
ATOM     14  N   UNL     1      -4.436   2.974  -1.190  1.00  0.00    -0.238 N 
ATOM     15  H   UNL     1      -4.769   2.239  -1.806  1.00  0.00    +0.198 HD
BRANCH  14  16
ATOM     16  O   UNL     1      -5.409   3.909  -0.763  1.00  0.00    -0.289 OA
ATOM     17  H   UNL     1      -5.016   4.258   0.071  1.00  0.00    +0.246 HD
ENDBRANCH  14  16
ENDBRANCH  11  12
ENDBRANCH   5  11
ENDBRANCH   1   5
BRANCH   3  18
ATOM     18  C   UNL     1       1.713   0.223  -0.551  1.00  0.00    +0.174 C 
BRANCH  18  19
ATOM     19  C   UNL     1       2.611   0.508   0.674  1.00  0.00    +0.245 C 
ATOM     20  O   UNL     1       2.410   1.505   1.378  1.00  0.00    -0.272 OA
BRANCH  19  21
ATOM     21  N   UNL     1       3.666  -0.344   0.911  1.00  0.00    -0.336 N 
ATOM     22  C   UNL     1       3.886  -1.645   0.294  1.00  0.00    +0.120 C 
ATOM     23  C   UNL     1       4.581  -0.124   2.036  1.00  0.00    +0.110 C 
ATOM     24  C   UNL     1       5.214  -2.128   0.849  1.00  0.00    +0.024 C 
ATOM     25  C   UNL     1       5.271  -1.479   2.226  1.00  0.00    +0.029 C 
BRANCH  23  26
ATOM     26  C   UNL     1       5.558   1.036   1.773  1.00  0.00    +0.181 C 
BRANCH  26  27
ATOM     27  O   UNL     1       6.429   0.762   0.677  1.00  0.00    -0.394 OA
ATOM     28  H   UNL     1       6.885   1.595   0.468  1.00  0.00    +0.210 HD
ENDBRANCH  26  27
ENDBRANCH  23  26
ENDBRANCH  19  21
ENDBRANCH  18  19
BRANCH  18  29
ATOM     29  C   UNL     1       2.359   0.763  -1.848  1.00  0.00    +0.015 C 
ATOM     30  C   UNL     1       2.422   2.292  -1.909  1.00  0.00    +0.010 C 
ATOM     31  C   UNL     1       1.622   0.223  -3.076  1.00  0.00    +0.010 C 
ENDBRANCH  18  29
ENDBRANCH   3  18
TORSDOF 14
