REMARK SMILES O=c1c(-c2ccc(O)cc2)coc2cc(O)cc(O)c12
REMARK SMILES IDX 1 1 2 2 3 3 11 4 12 5 13 6 14 7 15 8 17 9 18 10 20 11 4 12
REMARK SMILES IDX 5 13 10 14 6 15 9 16 7 17 8 18 19 20 16 22
REMARK H PARENT 8 19 19 21 16 23
ROOT
ATOM      1  O   UNL     1       0.100  -0.384  -1.890  1.00  0.00    -0.288 OA
ATOM      2  C   UNL     1       0.449  -0.239  -0.722  1.00  0.00    +0.204 C 
ATOM      3  C   UNL     1      -0.457   0.263   0.347  1.00  0.00    +0.065 C 
ATOM      4  C   UNL     1       0.058   0.349   1.584  1.00  0.00    +0.208 C 
ATOM      5  O   UNL     1       1.340   0.039   1.966  1.00  0.00    -0.463 OA
ATOM      6  C   UNL     1       2.204  -0.412   1.001  1.00  0.00    +0.145 A 
ATOM      7  C   UNL     1       3.503  -0.717   1.405  1.00  0.00    +0.094 A 
ATOM      8  C   UNL     1       4.422  -1.180   0.468  1.00  0.00    +0.123 A 
ATOM      9  C   UNL     1       4.064  -1.344  -0.867  1.00  0.00    +0.093 A 
ATOM     10  C   UNL     1       2.764  -1.037  -1.264  1.00  0.00    +0.134 A 
ATOM     11  C   UNL     1       1.830  -0.570  -0.332  1.00  0.00    +0.107 A 
ENDROOT
BRANCH   3  12
ATOM     12  C   UNL     1      -1.864   0.623   0.088  1.00  0.00    -0.011 A 
ATOM     13  C   UNL     1      -2.391   1.844   0.539  1.00  0.00    +0.013 A 
ATOM     14  C   UNL     1      -2.704  -0.249  -0.621  1.00  0.00    +0.013 A 
ATOM     15  C   UNL     1      -3.726   2.177   0.296  1.00  0.00    +0.047 A 
ATOM     16  C   UNL     1      -4.039   0.083  -0.868  1.00  0.00    +0.047 A 
ATOM     17  C   UNL     1      -4.539   1.295  -0.404  1.00  0.00    +0.115 A 
BRANCH  17  18
ATOM     18  O   UNL     1      -5.834   1.660  -0.622  1.00  0.00    -0.508 OA
ATOM     19  H   UNL     1      -6.267   0.968  -1.147  1.00  0.00    +0.293 HD
ENDBRANCH  17  18
ENDBRANCH   3  12
BRANCH  10  20
ATOM     20  O   UNL     1       2.471  -1.217  -2.590  1.00  0.00    -0.507 OA
ATOM     21  H   UNL     1       1.531  -0.959  -2.731  1.00  0.00    +0.293 HD
ENDBRANCH  10  20
BRANCH   8  22
ATOM     22  O   UNL     1       5.682  -1.467   0.904  1.00  0.00    -0.508 OA
ATOM     23  H   UNL     1       6.213  -1.775   0.150  1.00  0.00    +0.293 HD
ENDBRANCH   8  22
TORSDOF 4
