REMARK SMILES Nc1ncnc2c1ncn2[C@@H]1O[C@H](CO)[C@@H](O)[C@@H]1O
REMARK SMILES IDX 11 1 12 2 13 3 16 4 18 5 10 6 2 7 3 8 7 9 4 10 6 11 8 12
REMARK SMILES IDX 5 13 9 14 1 15 19 18 14 20 15 21 17 23
REMARK H PARENT 1 16 1 17 19 19 15 22 17 24
ROOT
ATOM      1  C   UNL     1      -0.539   1.143   0.069  1.00  0.00    +0.253 C 
ATOM      2  O   UNL     1      -1.517   1.102   1.141  1.00  0.00    -0.347 OA
ATOM      3  C   UNL     1      -2.720   0.508   0.615  1.00  0.00    +0.178 C 
ATOM      4  C   UNL     1      -2.282  -0.309  -0.592  1.00  0.00    +0.179 C 
ATOM      5  C   UNL     1      -1.248   0.621  -1.195  1.00  0.00    +0.195 C 
ENDROOT
BRANCH   1   6
ATOM      6  N   UNL     1       0.639   0.400   0.471  1.00  0.00    -0.285 N 
ATOM      7  C   UNL     1       3.981  -0.554   0.047  1.00  0.00    +0.155 A 
ATOM      8  N   UNL     1       4.328   0.094  -1.089  1.00  0.00    -0.217 NA
ATOM      9  C   UNL     1       2.676  -0.392   0.538  1.00  0.00    +0.150 A 
ATOM     10  C   UNL     1       3.393   0.840  -1.715  1.00  0.00    +0.226 A 
ATOM     11  C   UNL     1       1.830   0.413  -0.206  1.00  0.00    +0.167 A 
ATOM     12  N   UNL     1       2.029  -0.875   1.657  1.00  0.00    -0.231 NA
ATOM     13  N   UNL     1       2.107   1.055  -1.355  1.00  0.00    -0.216 NA
ATOM     14  C   UNL     1       0.812  -0.374   1.587  1.00  0.00    +0.204 A 
BRANCH   7  15
ATOM     15  N   UNL     1       4.942  -1.331   0.680  1.00  0.00    -0.382 N 
ATOM     16  H   UNL     1       5.884  -1.062   0.430  1.00  0.00    +0.158 HD
ATOM     17  H   UNL     1       4.742  -1.507   1.659  1.00  0.00    +0.158 HD
ENDBRANCH   7  15
ENDBRANCH   1   6
BRANCH   5  18
ATOM     18  O   UNL     1      -0.475  -0.061  -2.174  1.00  0.00    -0.386 OA
ATOM     19  H   UNL     1       0.354   0.442  -2.315  1.00  0.00    +0.211 HD
ENDBRANCH   5  18
BRANCH   3  20
ATOM     20  C   UNL     1      -3.444  -0.336   1.660  1.00  0.00    +0.191 C 
BRANCH  20  21
ATOM     21  O   UNL     1      -4.701  -0.803   1.184  1.00  0.00    -0.394 OA
ATOM     22  H   UNL     1      -4.602  -1.042   0.240  1.00  0.00    +0.210 HD
ENDBRANCH  20  21
ENDBRANCH   3  20
BRANCH   4  23
ATOM     23  O   UNL     1      -3.353  -0.598  -1.477  1.00  0.00    -0.387 OA
ATOM     24  H   UNL     1      -2.937  -0.914  -2.305  1.00  0.00    +0.211 HD
ENDBRANCH   4  23
TORSDOF 6
