REMARK SMILES CS(=O)(=O)c1cccc(C(=O)NC[C@@H]2CCCN2C(=O)C[C@H](N)Cc2cccc(Cl)c2)c1
REMARK SMILES IDX 14 1 15 2 16 3 17 4 18 5 13 6 12 7 10 8 11 9 9 11 5 12 6 13
REMARK SMILES IDX 32 14 7 15 8 16 2 17 3 18 4 19 1 20 19 21 20 22 21 23 22 24
REMARK SMILES IDX 23 25 24 28 25 29 26 30 31 31 27 32 29 33 28 34 30 35
REMARK H PARENT 12 10 23 26 23 27
ROOT
ATOM      1  C   UNL     1      -0.483  -2.037   1.944  1.00  0.00    +0.104 C 
ATOM      2  C   UNL     1       0.147  -2.853   3.087  1.00  0.00    +0.029 C 
ATOM      3  C   UNL     1       0.926  -3.941   2.358  1.00  0.00    +0.024 C 
ATOM      4  C   UNL     1       1.498  -3.187   1.168  1.00  0.00    +0.120 C 
ATOM      5  N   UNL     1       0.483  -2.195   0.835  1.00  0.00    -0.338 N 
ENDROOT
BRANCH   1   6
ATOM      6  C   UNL     1      -0.733  -0.579   2.396  1.00  0.00    +0.141 C 
BRANCH   6   7
ATOM      7  N   UNL     1      -1.706   0.110   1.564  1.00  0.00    -0.350 N 
ATOM      8  C   UNL     1      -3.059  -0.118   1.735  1.00  0.00    +0.251 C 
ATOM      9  O   UNL     1      -3.535  -0.715   2.693  1.00  0.00    -0.269 OA
ATOM     10  H   UNL     1      -1.411   0.202   0.594  1.00  0.00    +0.163 HD
BRANCH   8  11
ATOM     11  C   UNL     1      -3.936   0.344   0.625  1.00  0.00    +0.041 A 
ATOM     12  C   UNL     1      -4.478   1.877  -1.158  1.00  0.00    +0.067 A 
ATOM     13  C   UNL     1      -5.619   1.127  -1.479  1.00  0.00    +0.020 A 
ATOM     14  C   UNL     1      -3.625   1.490  -0.119  1.00  0.00    +0.034 A 
ATOM     15  C   UNL     1      -5.932   0.000  -0.722  1.00  0.00    +0.002 A 
ATOM     16  C   UNL     1      -5.101  -0.385   0.333  1.00  0.00    +0.014 A 
BRANCH  12  17
ATOM     17  S   UNL     1      -4.117   3.332  -2.107  1.00  0.00    +0.175 S 
ATOM     18  O   UNL     1      -2.778   3.771  -1.763  1.00  0.00    -0.224 OA
ATOM     19  O   UNL     1      -4.482   3.047  -3.484  1.00  0.00    -0.224 OA
ATOM     20  C   UNL     1      -5.258   4.524  -1.465  1.00  0.00    +0.163 C 
ENDBRANCH  12  17
ENDBRANCH   8  11
ENDBRANCH   6   7
ENDBRANCH   1   6
BRANCH   5  21
ATOM     21  C   UNL     1       0.325  -1.588  -0.389  1.00  0.00    +0.224 C 
ATOM     22  O   UNL     1      -0.619  -0.821  -0.621  1.00  0.00    -0.275 OA
BRANCH  21  23
ATOM     23  C   UNL     1       1.346  -1.846  -1.489  1.00  0.00    +0.119 C 
BRANCH  23  24
ATOM     24  C   UNL     1       2.709  -1.152  -1.335  1.00  0.00    +0.064 C 
BRANCH  24  25
ATOM     25  N   UNL     1       3.738  -2.113  -0.871  1.00  0.00    -0.327 NA
ATOM     26  H   UNL     1       3.798  -2.877  -1.546  1.00  0.00    +0.119 HD
ATOM     27  H   UNL     1       4.649  -1.646  -0.913  1.00  0.00    +0.119 HD
ENDBRANCH  24  25
BRANCH  24  28
ATOM     28  C   UNL     1       2.665   0.131  -0.470  1.00  0.00    +0.054 C 
BRANCH  28  29
ATOM     29  C   UNL     1       3.927   0.961  -0.567  1.00  0.00    -0.045 A 
ATOM     30  C   UNL     1       4.966   0.797   0.371  1.00  0.00    +0.004 A 
ATOM     31  C   UNL     1       4.092   1.885  -1.608  1.00  0.00    +0.024 A 
ATOM     32  C   UNL     1       6.154   1.521   0.253  1.00  0.00    +0.002 A 
ATOM     33  C   UNL     1       5.284   2.609  -1.719  1.00  0.00    +0.041 A 
ATOM     34  C   UNL     1       6.313   2.426  -0.797  1.00  0.00    +0.020 A 
ATOM     35 Cl   UNL     1       5.492   3.735  -3.009  1.00  0.00    -0.084 Cl
ENDBRANCH  28  29
ENDBRANCH  24  28
ENDBRANCH  23  24
ENDBRANCH  21  23
ENDBRANCH   5  21
TORSDOF 10
