REMARK SMILES C[C@H](c1nc(-c2ccc(S(C)(=O)=O)cc2)no1)[C@H](N)C(=O)N1CCCC1
REMARK SMILES IDX 3 1 4 2 5 3 16 4 17 5 2 6 1 7 18 8 19 9 20 12 21 13 22 14
REMARK SMILES IDX 23 15 26 16 24 17 25 18 6 19 7 20 15 21 8 22 14 23 9 24
REMARK SMILES IDX 10 25 12 26 13 27 11 28
REMARK H PARENT 19 10 19 11
ROOT
ATOM      1  C   UNL     1      -0.514  -1.606  -0.109  1.00  0.00    +0.231 A 
ATOM      2  N   UNL     1       0.732  -1.468  -0.497  1.00  0.00    -0.191 NA
ATOM      3  C   UNL     1       1.335  -0.913   0.611  1.00  0.00    +0.202 A 
ATOM      4  N   UNL     1       0.503  -0.744   1.653  1.00  0.00    -0.057 NA
ATOM      5  O   UNL     1      -0.720  -1.211   1.181  1.00  0.00    -0.339 OA
ENDROOT
BRANCH   1   6
ATOM      6  C   UNL     1      -1.680  -2.177  -0.855  1.00  0.00    +0.102 C 
ATOM      7  C   UNL     1      -1.797  -3.667  -0.508  1.00  0.00    +0.020 C 
BRANCH   6   8
ATOM      8  C   UNL     1      -2.988  -1.391  -0.555  1.00  0.00    +0.153 C 
BRANCH   8   9
ATOM      9  N   UNL     1      -4.184  -1.954  -1.233  1.00  0.00    -0.319 NA
ATOM     10  H   UNL     1      -4.037  -1.910  -2.244  1.00  0.00    +0.119 HD
ATOM     11  H   UNL     1      -4.299  -2.937  -0.999  1.00  0.00    +0.119 HD
ENDBRANCH   8   9
BRANCH   8  12
ATOM     12  C   UNL     1      -2.847   0.087  -1.013  1.00  0.00    +0.240 C 
ATOM     13  O   UNL     1      -2.041   0.409  -1.889  1.00  0.00    -0.273 OA
ATOM     14  N   UNL     1      -3.692   1.014  -0.439  1.00  0.00    -0.341 N 
ATOM     15  C   UNL     1      -4.746   0.764   0.531  1.00  0.00    +0.119 C 
ATOM     16  C   UNL     1      -3.677   2.405  -0.856  1.00  0.00    +0.119 C 
ATOM     17  C   UNL     1      -5.205   2.154   0.953  1.00  0.00    +0.023 C 
ATOM     18  C   UNL     1      -4.971   2.984  -0.302  1.00  0.00    +0.023 C 
ENDBRANCH   8  12
ENDBRANCH   6   8
ENDBRANCH   1   6
BRANCH   3  19
ATOM     19  C   UNL     1       2.750  -0.555   0.629  1.00  0.00    +0.023 A 
ATOM     20  C   UNL     1       3.342   0.008   1.772  1.00  0.00    +0.013 A 
ATOM     21  C   UNL     1       3.547  -0.775  -0.508  1.00  0.00    +0.013 A 
ATOM     22  C   UNL     1       4.698   0.350   1.779  1.00  0.00    +0.021 A 
ATOM     23  C   UNL     1       4.903  -0.437  -0.508  1.00  0.00    +0.021 A 
ATOM     24  C   UNL     1       5.467   0.137   0.634  1.00  0.00    +0.067 A 
BRANCH  24  25
ATOM     25  S   UNL     1       7.193   0.560   0.639  1.00  0.00    +0.175 S 
ATOM     26  O   UNL     1       7.624   0.626   2.023  1.00  0.00    -0.224 OA
ATOM     27  O   UNL     1       7.860  -0.315  -0.307  1.00  0.00    -0.224 OA
ATOM     28  C   UNL     1       7.209   2.206  -0.022  1.00  0.00    +0.163 C 
ENDBRANCH  24  25
ENDBRANCH   3  19
TORSDOF 6
