REMARK SMILES O=C(CN[C@@H]1CCNC1)N1CCC[C@H]1B(O)O
REMARK SMILES IDX 1 1 2 2 3 3 4 4 5 6 6 7 9 8 7 9 8 10 10 12 11 13 14 14 12 15
REMARK SMILES IDX 13 16 15 17 16 18 17 20
REMARK H PARENT 4 5 8 11 16 19 17 21
ROOT
ATOM      1  O   UNL     1      -0.484  -2.568   0.730  1.00  0.00    -0.273 OA
ATOM      2  C   UNL     1      -0.618  -1.412   0.253  1.00  0.00    +0.236 C 
ENDROOT
BRANCH   2   3
ATOM      3  C   UNL     1       0.489  -0.414   0.220  1.00  0.00    +0.182 C 
BRANCH   3   4
ATOM      4  N   UNL     1       1.703  -0.957   0.800  1.00  0.00    -0.304 NA
ATOM      5  H   UNL     1       1.992  -1.836   0.318  1.00  0.00    +0.123 HD
BRANCH   4   6
ATOM      6  C   UNL     1       2.721   0.068   0.729  1.00  0.00    +0.069 C 
ATOM      7  C   UNL     1       3.017   0.513  -0.689  1.00  0.00    +0.035 C 
ATOM      8  C   UNL     1       4.085  -0.462   1.132  1.00  0.00    +0.099 C 
ATOM      9  C   UNL     1       4.378   1.149  -0.515  1.00  0.00    +0.082 C 
ATOM     10  N   UNL     1       4.962   0.605   0.682  1.00  0.00    -0.315 NA
ATOM     11  H   UNL     1       4.913   1.360   1.429  1.00  0.00    +0.122 HD
ENDBRANCH   4   6
ENDBRANCH   3   4
ENDBRANCH   2   3
BRANCH   2  12
ATOM     12  N   UNL     1      -1.883  -1.053  -0.275  1.00  0.00    -0.340 N 
ATOM     13  C   UNL     1      -3.019  -1.975  -0.279  1.00  0.00    +0.119 C 
ATOM     14  C   UNL     1      -2.315   0.179  -0.873  1.00  0.00    +0.117 C 
ATOM     15  C   UNL     1      -4.165  -1.010  -0.005  1.00  0.00    +0.023 C 
ATOM     16  C   UNL     1      -3.821   0.097  -0.990  1.00  0.00    +0.024 C 
BRANCH  14  17
ATOM     17  B   UNL     1      -2.012   1.447   0.041  1.00  0.00    +0.475 B 
BRANCH  17  18
ATOM     18  O   UNL     1      -2.331   1.438   1.475  1.00  0.00    -0.426 OA
ATOM     19  H   UNL     1      -3.288   1.634   1.575  1.00  0.00    +0.189 HD
ENDBRANCH  17  18
BRANCH  17  20
ATOM     20  O   UNL     1      -2.181   2.755  -0.630  1.00  0.00    -0.426 OA
ATOM     21  H   UNL     1      -3.113   3.093  -0.486  1.00  0.00    +0.189 HD
ENDBRANCH  17  20
ENDBRANCH  14  17
ENDBRANCH   2  12
TORSDOF 7
