REMARK SMILES N#Cc1ccccc1Cn1c(N2CCC[C@@H](N)C2)nc2ccccc2c1=O
REMARK SMILES IDX 10 1 11 2 19 3 20 4 21 5 22 6 23 7 24 8 25 9 26 10 27 11
REMARK SMILES IDX 9 12 8 13 1 14 2 15 3 16 4 17 5 18 7 19 6 20 12 21 13 22
REMARK SMILES IDX 18 23 14 24 16 25 15 26 17 27
REMARK H PARENT 17 28 17 29
ROOT
ATOM      1  N   UNL     1       0.504   0.885   0.947  1.00  0.00    -0.274 N 
ATOM      2  C   UNL     1      -0.502   0.603   0.031  1.00  0.00    +0.209 C 
ATOM      3  N   UNL     1      -0.919   1.477  -0.839  1.00  0.00    -0.214 NA
ATOM      4  C   UNL     1      -0.348   2.754  -0.853  1.00  0.00    +0.080 A 
ATOM      5  C   UNL     1      -0.800   3.684  -1.793  1.00  0.00    +0.029 A 
ATOM      6  C   UNL     1      -0.253   4.970  -1.843  1.00  0.00    +0.002 A 
ATOM      7  C   UNL     1       0.753   5.338  -0.949  1.00  0.00    +0.001 A 
ATOM      8  C   UNL     1       1.210   4.418  -0.006  1.00  0.00    +0.016 A 
ATOM      9  C   UNL     1       0.654   3.133   0.034  1.00  0.00    +0.066 A 
ATOM     10  C   UNL     1       1.121   2.132   1.004  1.00  0.00    +0.263 C 
ATOM     11  O   UNL     1       2.022   2.427   1.786  1.00  0.00    -0.268 OA
ENDROOT
BRANCH   1  12
ATOM     12  C   UNL     1       0.994  -0.144   1.863  1.00  0.00    +0.166 C 
BRANCH  12  13
ATOM     13  C   UNL     1       2.041  -1.088   1.276  1.00  0.00    -0.010 A 
ATOM     14  N   UNL     1       1.166  -2.970   4.147  1.00  0.00    -0.192 NA
ATOM     15  C   UNL     1       1.728  -2.656   3.182  1.00  0.00    +0.099 C 
ATOM     16  C   UNL     1       2.386  -2.276   1.963  1.00  0.00    +0.057 A 
ATOM     17  C   UNL     1       3.377  -3.129   1.452  1.00  0.00    +0.020 A 
ATOM     18  C   UNL     1       4.034  -2.816   0.263  1.00  0.00    +0.001 A 
ATOM     19  C   UNL     1       2.725  -0.791   0.083  1.00  0.00    +0.007 A 
ATOM     20  C   UNL     1       3.705  -1.650  -0.421  1.00  0.00    +0.000 A 
ENDBRANCH  12  13
ENDBRANCH   1  12
BRANCH   2  21
ATOM     21  N   UNL     1      -1.077  -0.657   0.047  1.00  0.00    -0.341 N 
ATOM     22  C   UNL     1      -2.381  -0.755   0.741  1.00  0.00    +0.120 C 
ATOM     23  C   UNL     1      -0.969  -1.461  -1.196  1.00  0.00    +0.138 C 
ATOM     24  C   UNL     1      -3.068  -2.083   0.455  1.00  0.00    +0.023 C 
ATOM     25  C   UNL     1      -2.319  -1.582  -1.942  1.00  0.00    +0.070 C 
ATOM     26  C   UNL     1      -3.366  -2.254  -1.037  1.00  0.00    +0.022 C 
BRANCH  25  27
ATOM     27  N   UNL     1      -2.826  -0.275  -2.399  1.00  0.00    -0.326 NA
ATOM     28  H   UNL     1      -2.448   0.454  -1.773  1.00  0.00    +0.119 HD
ATOM     29  H   UNL     1      -2.397  -0.046  -3.297  1.00  0.00    +0.119 HD
ENDBRANCH  25  27
ENDBRANCH   2  21
TORSDOF 4
