REMARK SMILES N[C@H]1CN(C(=O)c2cnc3ccccc3n2)C[C@H]1C(=O)N1CCCC1
REMARK SMILES IDX 2 1 3 2 4 3 17 4 18 5 1 6 19 9 20 10 21 11 22 12 25 13 23 14
REMARK SMILES IDX 24 15 5 16 6 17 7 18 8 19 16 20 9 21 15 22 10 23 14 24 11 25
REMARK SMILES IDX 13 26 12 27
REMARK H PARENT 1 7 1 8
ROOT
ATOM      1  C   UNL     1      -0.636   1.541  -0.519  1.00  0.00    +0.084 C 
ATOM      2  C   UNL     1       0.701   0.786  -0.318  1.00  0.00    +0.139 C 
ATOM      3  N   UNL     1       0.371  -0.633  -0.445  1.00  0.00    -0.335 N 
ATOM      4  C   UNL     1      -1.004  -0.807  -0.896  1.00  0.00    +0.135 C 
ATOM      5  C   UNL     1      -1.393   0.560  -1.425  1.00  0.00    +0.116 C 
ENDROOT
BRANCH   1   6
ATOM      6  N   UNL     1      -1.288   1.820   0.769  1.00  0.00    -0.325 NA
ATOM      7  H   UNL     1      -2.142   2.355   0.602  1.00  0.00    +0.119 HD
ATOM      8  H   UNL     1      -0.688   2.423   1.331  1.00  0.00    +0.119 HD
ENDBRANCH   1   6
BRANCH   5   9
ATOM      9  C   UNL     1      -2.841   0.911  -1.721  1.00  0.00    +0.229 C 
ATOM     10  O   UNL     1      -3.058   1.644  -2.698  1.00  0.00    -0.274 OA
ATOM     11  N   UNL     1      -3.889   0.516  -0.929  1.00  0.00    -0.342 N 
ATOM     12  C   UNL     1      -5.246   0.915  -1.281  1.00  0.00    +0.119 C 
ATOM     13  C   UNL     1      -3.898  -0.294   0.281  1.00  0.00    +0.119 C 
ATOM     14  C   UNL     1      -6.149   0.096  -0.372  1.00  0.00    +0.023 C 
ATOM     15  C   UNL     1      -5.289  -0.092   0.868  1.00  0.00    +0.023 C 
ENDBRANCH   5   9
BRANCH   3  16
ATOM     16  C   UNL     1       1.135  -1.727  -0.068  1.00  0.00    +0.274 C 
ATOM     17  O   UNL     1       0.662  -2.867  -0.081  1.00  0.00    -0.267 OA
BRANCH  16  18
ATOM     18  C   UNL     1       2.555  -1.558   0.363  1.00  0.00    +0.147 A 
ATOM     19  C   UNL     1       3.189  -2.616   0.994  1.00  0.00    +0.146 A 
ATOM     20  N   UNL     1       3.207  -0.396   0.100  1.00  0.00    -0.239 NA
ATOM     21  N   UNL     1       4.482  -2.557   1.402  1.00  0.00    -0.252 NA
ATOM     22  C   UNL     1       4.494  -0.324   0.494  1.00  0.00    +0.090 A 
ATOM     23  C   UNL     1       5.135  -1.407   1.150  1.00  0.00    +0.089 A 
ATOM     24  C   UNL     1       5.215   0.839   0.255  1.00  0.00    +0.030 A 
ATOM     25  C   UNL     1       6.463  -1.274   1.535  1.00  0.00    +0.030 A 
ATOM     26  C   UNL     1       6.550   0.961   0.646  1.00  0.00    +0.002 A 
ATOM     27  C   UNL     1       7.176  -0.099   1.289  1.00  0.00    +0.002 A 
ENDBRANCH  16  18
ENDBRANCH   3  16
TORSDOF 4
