REMARK SMILES O=c1cc(-c2ccc(O)c(O)c2)oc2cc(O)cc(O)c12
REMARK SMILES IDX 1 1 2 2 3 3 4 4 13 5 14 6 15 7 16 8 18 9 19 10 21 11 5 12
REMARK SMILES IDX 6 13 12 14 7 15 10 16 8 17 11 18 9 20 20 22 17 24
REMARK H PARENT 11 19 9 21 20 23 17 25
ROOT
ATOM      1  O   UNL     1      -2.424  -2.020   2.070  1.00  0.00    -0.289 OA
ATOM      2  C   UNL     1      -1.808  -1.287   1.304  1.00  0.00    +0.197 C 
ATOM      3  C   UNL     1      -0.346  -1.365   1.172  1.00  0.00    +0.100 C 
ATOM      4  C   UNL     1       0.274  -0.537   0.319  1.00  0.00    +0.138 C 
ATOM      5  O   UNL     1      -0.371   0.417  -0.453  1.00  0.00    -0.456 OA
ATOM      6  C   UNL     1      -1.739   0.511  -0.369  1.00  0.00    +0.146 A 
ATOM      7  C   UNL     1      -2.357   1.467  -1.177  1.00  0.00    +0.094 A 
ATOM      8  C   UNL     1      -3.742   1.606  -1.126  1.00  0.00    +0.123 A 
ATOM      9  C   UNL     1      -4.513   0.809  -0.284  1.00  0.00    +0.093 A 
ATOM     10  C   UNL     1      -3.891  -0.143   0.519  1.00  0.00    +0.134 A 
ATOM     11  C   UNL     1      -2.502  -0.294   0.476  1.00  0.00    +0.107 A 
ENDROOT
BRANCH   4  12
ATOM     12  C   UNL     1       1.740  -0.559   0.150  1.00  0.00    +0.021 A 
ATOM     13  C   UNL     1       2.437  -1.771  -0.008  1.00  0.00    +0.016 A 
ATOM     14  C   UNL     1       2.457   0.650   0.121  1.00  0.00    +0.062 A 
ATOM     15  C   UNL     1       3.825  -1.781  -0.177  1.00  0.00    +0.051 A 
ATOM     16  C   UNL     1       3.839   0.629  -0.048  1.00  0.00    +0.158 A 
ATOM     17  C   UNL     1       4.513  -0.579  -0.194  1.00  0.00    +0.157 A 
BRANCH  16  18
ATOM     18  O   UNL     1       4.581   1.778  -0.076  1.00  0.00    -0.504 OA
ATOM     19  H   UNL     1       3.981   2.534   0.045  1.00  0.00    +0.293 HD
ENDBRANCH  16  18
BRANCH  17  20
ATOM     20  O   UNL     1       5.868  -0.589  -0.360  1.00  0.00    -0.504 OA
ATOM     21  H   UNL     1       6.126   0.354  -0.340  1.00  0.00    +0.293 HD
ENDBRANCH  17  20
ENDBRANCH   4  12
BRANCH  10  22
ATOM     22  O   UNL     1      -4.698  -0.899   1.326  1.00  0.00    -0.507 OA
ATOM     23  H   UNL     1      -4.131  -1.524   1.831  1.00  0.00    +0.293 HD
ENDBRANCH  10  22
BRANCH   8  24
ATOM     24  O   UNL     1      -4.391   2.524  -1.897  1.00  0.00    -0.508 OA
ATOM     25  H   UNL     1      -3.746   2.994  -2.451  1.00  0.00    +0.293 HD
ENDBRANCH   8  24
TORSDOF 5
