REMARK SMILES Cn1cnc2cc(C#N)c(-c3ccccc3Cl)c(CN)c21
REMARK SMILES IDX 1 1 2 2 3 3 4 4 5 5 6 6 7 7 8 8 9 9 10 10 18 11 21 12 19 13
REMARK SMILES IDX 20 14 11 17 12 18 16 19 13 20 15 21 14 22 17 23
REMARK H PARENT 20 15 20 16
ROOT
ATOM      1  C   UNL     1       3.842   0.893  -0.350  1.00  0.00    +0.151 C 
ATOM      2  N   UNL     1       3.210  -0.400  -0.425  1.00  0.00    -0.333 N 
ATOM      3  C   UNL     1       3.911  -1.564  -0.580  1.00  0.00    +0.200 A 
ATOM      4  N   UNL     1       3.121  -2.607  -0.597  1.00  0.00    -0.237 NA
ATOM      5  C   UNL     1       1.859  -2.099  -0.444  1.00  0.00    +0.090 A 
ATOM      6  C   UNL     1       0.658  -2.810  -0.386  1.00  0.00    +0.050 A 
ATOM      7  C   UNL     1      -0.539  -2.108  -0.219  1.00  0.00    +0.062 A 
ATOM      8  C   UNL     1      -1.753  -2.878  -0.165  1.00  0.00    +0.100 C 
ATOM      9  N   UNL     1      -2.725  -3.514  -0.139  1.00  0.00    -0.192 NA
ATOM     10  C   UNL     1      -0.554  -0.695  -0.119  1.00  0.00    +0.008 A 
ATOM     11  C   UNL     1       0.670   0.055  -0.200  1.00  0.00    +0.001 A 
ATOM     12  C   UNL     1       1.863  -0.705  -0.346  1.00  0.00    +0.073 A 
ENDROOT
BRANCH  11  13
ATOM     13  C   UNL     1       0.654   1.565  -0.094  1.00  0.00    +0.116 C 
BRANCH  13  14
ATOM     14  N   UNL     1       0.686   2.002   1.291  1.00  0.00    -0.326 NA
ATOM     15  H   UNL     1       1.470   1.581   1.782  1.00  0.00    +0.119 HD
ATOM     16  H   UNL     1       0.798   3.012   1.338  1.00  0.00    +0.119 HD
ENDBRANCH  13  14
ENDBRANCH  11  13
BRANCH  10  17
ATOM     17  C   UNL     1      -1.851  -0.000   0.069  1.00  0.00    +0.002 A 
ATOM     18  C   UNL     1      -2.555   0.458  -1.061  1.00  0.00    +0.010 A 
ATOM     19  C   UNL     1      -2.429   0.203   1.338  1.00  0.00    +0.048 A 
ATOM     20  C   UNL     1      -3.783   1.109  -0.930  1.00  0.00    +0.001 A 
ATOM     21  C   UNL     1      -3.659   0.857   1.466  1.00  0.00    +0.021 A 
ATOM     22  C   UNL     1      -4.333   1.311   0.333  1.00  0.00    +0.002 A 
ATOM     23 Cl   UNL     1      -1.669  -0.363   2.787  1.00  0.00    -0.084 Cl
ENDBRANCH  10  17
TORSDOF 3
