REMARK SMILES CC(C)C(N)C(=O)N1CCCC1
REMARK SMILES IDX 4 1 2 2 1 3 3 4 5 5 6 8 7 9 8 10 9 11 12 12 10 13 11 14
REMARK H PARENT 5 6 5 7
ROOT
ATOM      1  C   UNL     1      -1.152  -0.166   0.925  1.00  0.00    +0.144 C 
ENDROOT
BRANCH   1   2
ATOM      2  C   UNL     1      -1.958   0.003  -0.388  1.00  0.00    +0.009 C 
ATOM      3  C   UNL     1      -3.244  -0.834  -0.389  1.00  0.00    +0.009 C 
ATOM      4  C   UNL     1      -2.329   1.474  -0.621  1.00  0.00    +0.009 C 
ENDBRANCH   1   2
BRANCH   1   5
ATOM      5  N   UNL     1      -0.830  -1.579   1.234  1.00  0.00    -0.320 NA
ATOM      6  H   UNL     1      -0.301  -1.595   2.108  1.00  0.00    +0.119 HD
ATOM      7  H   UNL     1      -1.696  -2.078   1.433  1.00  0.00    +0.119 HD
ENDBRANCH   1   5
BRANCH   1   8
ATOM      8  C   UNL     1       0.135   0.703   0.950  1.00  0.00    +0.239 C 
ATOM      9  O   UNL     1       0.146   1.738   1.626  1.00  0.00    -0.273 OA
ATOM     10  N   UNL     1       1.231   0.341   0.197  1.00  0.00    -0.341 N 
ATOM     11  C   UNL     1       2.424   1.172   0.186  1.00  0.00    +0.119 C 
ATOM     12  C   UNL     1       1.446  -0.887  -0.554  1.00  0.00    +0.119 C 
ATOM     13  C   UNL     1       3.499   0.306  -0.455  1.00  0.00    +0.023 C 
ATOM     14  C   UNL     1       2.699  -0.607  -1.373  1.00  0.00    +0.023 C 
ENDBRANCH   1   8
TORSDOF 3
