REMARK SMILES CC(C)[C@H](N)C(=O)N1CCC[C@@H]1B(O)O
REMARK SMILES IDX 8 1 9 2 10 3 11 4 12 5 6 6 7 7 4 8 2 9 1 10 3 11 5 12 13 15
REMARK SMILES IDX 14 16 15 18
REMARK H PARENT 5 13 5 14 14 17 15 19
ROOT
ATOM      1  N   UNL     1      -0.720   0.442   0.273  1.00  0.00    -0.340 N 
ATOM      2  C   UNL     1      -1.641   1.592   0.139  1.00  0.00    +0.119 C 
ATOM      3  C   UNL     1      -2.185   1.391  -1.246  1.00  0.00    +0.023 C 
ATOM      4  C   UNL     1      -2.048  -0.063  -1.549  1.00  0.00    +0.024 C 
ATOM      5  C   UNL     1      -1.453  -0.665  -0.283  1.00  0.00    +0.117 C 
ENDROOT
BRANCH   1   6
ATOM      6  C   UNL     1       0.548   0.586   0.841  1.00  0.00    +0.239 C 
ATOM      7  O   UNL     1       0.859   1.775   1.228  1.00  0.00    -0.273 OA
BRANCH   6   8
ATOM      8  C   UNL     1       1.572  -0.439   1.054  1.00  0.00    +0.144 C 
BRANCH   8   9
ATOM      9  C   UNL     1       2.787  -0.122   0.183  1.00  0.00    +0.009 C 
ATOM     10  C   UNL     1       2.353  -0.147  -1.269  1.00  0.00    +0.009 C 
ATOM     11  C   UNL     1       3.453   1.169   0.568  1.00  0.00    +0.009 C 
ENDBRANCH   8   9
BRANCH   8  12
ATOM     12  N   UNL     1       1.155  -1.753   0.629  1.00  0.00    -0.320 NA
ATOM     13  H   UNL     1       1.455  -2.475   1.347  1.00  0.00    +0.119 HD
ATOM     14  H   UNL     1       1.493  -2.015  -0.320  1.00  0.00    +0.119 HD
ENDBRANCH   8  12
ENDBRANCH   6   8
ENDBRANCH   1   6
BRANCH   5  15
ATOM     15  B   UNL     1      -2.726  -1.024   0.627  1.00  0.00    +0.475 B 
BRANCH  15  16
ATOM     16  O   UNL     1      -2.407  -1.461   2.001  1.00  0.00    -0.426 OA
ATOM     17  H   UNL     1      -3.243  -1.747   2.441  1.00  0.00    +0.189 HD
ENDBRANCH  15  16
BRANCH  15  18
ATOM     18  O   UNL     1      -3.968  -0.266   0.507  1.00  0.00    -0.426 OA
ATOM     19  H   UNL     1      -4.660  -0.820   0.025  1.00  0.00    +0.189 HD
ENDBRANCH  15  18
ENDBRANCH   5  15
TORSDOF 7
