REMARK SMILES COc1ccc([C@@H]2CC(=O)c3c(O)cc(O)cc3O2)cc1O
REMARK SMILES IDX 7 1 8 2 9 3 10 4 11 5 12 6 14 7 15 8 17 9 18 10 19 11 6 12
REMARK SMILES IDX 3 13 4 14 21 15 5 16 20 17 2 18 1 19 22 20 13 22 16 24
REMARK H PARENT 22 21 13 23 16 25
ROOT
ATOM      1  C   UNL     1      -0.271   0.369  -0.365  1.00  0.00    +0.211 C 
ATOM      2  C   UNL     1      -0.771   1.664   0.262  1.00  0.00    +0.131 C 
ATOM      3  C   UNL     1      -2.202   1.856  -0.148  1.00  0.00    +0.174 C 
ATOM      4  O   UNL     1      -2.716   2.962  -0.293  1.00  0.00    -0.294 OA
ATOM      5  C   UNL     1      -3.016   0.638  -0.315  1.00  0.00    +0.102 A 
ATOM      6  C   UNL     1      -4.390   0.705  -0.576  1.00  0.00    +0.133 A 
ATOM      7  C   UNL     1      -5.143  -0.462  -0.679  1.00  0.00    +0.093 A 
ATOM      8  C   UNL     1      -4.514  -1.693  -0.510  1.00  0.00    +0.123 A 
ATOM      9  C   UNL     1      -3.147  -1.772  -0.252  1.00  0.00    +0.093 A 
ATOM     10  C   UNL     1      -2.393  -0.603  -0.171  1.00  0.00    +0.138 A 
ATOM     11  O   UNL     1      -1.054  -0.752   0.077  1.00  0.00    -0.484 OA
ENDROOT
BRANCH   1  12
ATOM     12  C   UNL     1       1.181   0.123  -0.000  1.00  0.00    -0.003 A 
ATOM     13  C   UNL     1       3.898  -0.276   0.662  1.00  0.00    +0.160 A 
ATOM     14  C   UNL     1       3.548   0.198  -0.601  1.00  0.00    +0.051 A 
ATOM     15  C   UNL     1       2.880  -0.543   1.584  1.00  0.00    +0.158 A 
ATOM     16  C   UNL     1       2.200   0.398  -0.928  1.00  0.00    +0.011 A 
ATOM     17  C   UNL     1       1.539  -0.350   1.270  1.00  0.00    +0.057 A 
BRANCH  13  18
ATOM     18  O   UNL     1       5.169  -0.514   1.116  1.00  0.00    -0.493 OA
ATOM     19  C   UNL     1       6.229  -0.270   0.199  1.00  0.00    +0.278 C 
ENDBRANCH  13  18
BRANCH  15  20
ATOM     20  O   UNL     1       3.189  -1.004   2.835  1.00  0.00    -0.504 OA
ATOM     21  H   UNL     1       4.163  -1.076   2.843  1.00  0.00    +0.293 HD
ENDBRANCH  15  20
ENDBRANCH   1  12
BRANCH   6  22
ATOM     22  O   UNL     1      -5.062   1.887  -0.733  1.00  0.00    -0.507 OA
ATOM     23  H   UNL     1      -4.419   2.623  -0.617  1.00  0.00    +0.293 HD
ENDBRANCH   6  22
BRANCH   8  24
ATOM     24  O   UNL     1      -5.211  -2.861  -0.593  1.00  0.00    -0.508 OA
ATOM     25  H   UNL     1      -6.147  -2.658  -0.758  1.00  0.00    +0.293 HD
ENDBRANCH   8  24
TORSDOF 5
