REMARK SMILES COc1ccc(N2CCC(N)C(c3cccc(C)c3)C2)cc1OC
REMARK SMILES IDX 3 1 4 2 5 3 6 4 21 5 22 6 2 7 1 8 23 9 24 10 7 11 8 12 20 13
REMARK SMILES IDX 9 14 12 15 10 16 13 17 14 18 19 19 15 20 17 21 16 22 18 23
REMARK SMILES IDX 11 24
REMARK H PARENT 11 25 11 26
ROOT
ATOM      1  C   UNL     1      -4.401   0.854  -0.839  1.00  0.00    +0.160 A 
ATOM      2  C   UNL     1      -3.276   1.060  -1.634  1.00  0.00    +0.052 A 
ATOM      3  C   UNL     1      -2.026   0.567  -1.237  1.00  0.00    +0.030 A 
ATOM      4  C   UNL     1      -1.850  -0.147  -0.043  1.00  0.00    +0.041 A 
ATOM      5  C   UNL     1      -2.999  -0.340   0.745  1.00  0.00    +0.076 A 
ATOM      6  C   UNL     1      -4.262   0.146   0.366  1.00  0.00    +0.162 A 
ENDROOT
BRANCH   1   7
ATOM      7  O   UNL     1      -5.664   1.296  -1.144  1.00  0.00    -0.493 OA
ATOM      8  C   UNL     1      -5.828   2.037  -2.344  1.00  0.00    +0.278 C 
ENDBRANCH   1   7
BRANCH   6   9
ATOM      9  O   UNL     1      -5.411  -0.015   1.104  1.00  0.00    -0.493 OA
ATOM     10  C   UNL     1      -5.315  -0.721   2.332  1.00  0.00    +0.278 C 
ENDBRANCH   6   9
BRANCH   4  11
ATOM     11  N   UNL     1      -0.608  -0.634   0.343  1.00  0.00    -0.371 N 
ATOM     12  C   UNL     1      -0.501  -1.790   1.237  1.00  0.00    +0.118 C 
ATOM     13  C   UNL     1       0.634  -0.060  -0.201  1.00  0.00    +0.126 C 
ATOM     14  C   UNL     1       0.772  -2.577   0.940  1.00  0.00    +0.041 C 
ATOM     15  C   UNL     1       1.799  -0.232   0.798  1.00  0.00    +0.055 C 
ATOM     16  C   UNL     1       2.041  -1.733   1.120  1.00  0.00    +0.061 C 
BRANCH  15  17
ATOM     17  C   UNL     1       3.062   0.469   0.310  1.00  0.00    -0.041 A 
ATOM     18  C   UNL     1       3.669   1.443   1.114  1.00  0.00    +0.004 A 
ATOM     19  C   UNL     1       3.643   0.167  -0.934  1.00  0.00    +0.007 A 
ATOM     20  C   UNL     1       4.816   2.109   0.681  1.00  0.00    +0.001 A 
ATOM     21  C   UNL     1       4.804   0.821  -1.369  1.00  0.00    -0.051 A 
ATOM     22  C   UNL     1       5.377   1.806  -0.558  1.00  0.00    +0.003 A 
ATOM     23  C   UNL     1       5.392   0.509  -2.714  1.00  0.00    +0.044 C 
ENDBRANCH  15  17
BRANCH  16  24
ATOM     24  N   UNL     1       2.585  -1.890   2.482  1.00  0.00    -0.327 NA
ATOM     25  H   UNL     1       1.907  -1.573   3.174  1.00  0.00    +0.119 HD
ATOM     26  H   UNL     1       2.764  -2.874   2.675  1.00  0.00    +0.119 HD
ENDBRANCH  16  24
ENDBRANCH   4  11
TORSDOF 5
