REMARK SMILES N#C[C@@H]1C[C@@H]2C[C@@H]2N1C(=O)[C@@H](N)C12CC3CC(CC(O)(C3)C1)C2
REMARK SMILES IDX 13 1 23 2 17 3 16 4 15 5 21 6 19 7 18 8 22 9 14 10 11 11
REMARK SMILES IDX 9 12 10 13 8 14 1 15 2 16 3 17 4 18 5 19 7 20 6 21 12 22
REMARK SMILES IDX 20 25
REMARK H PARENT 12 23 12 24 20 26
ROOT
ATOM      1  C   UNL     1      -0.919   0.083   0.421  1.00  0.00    -0.002 C 
ATOM      2  C   UNL     1      -1.601   1.481   0.420  1.00  0.00    +0.013 C 
ATOM      3  C   UNL     1      -3.081   1.375   0.004  1.00  0.00    -0.007 C 
ATOM      4  C   UNL     1      -3.174   0.762  -1.402  1.00  0.00    +0.007 C 
ATOM      5  C   UNL     1      -2.552  -0.644  -1.409  1.00  0.00    -0.007 C 
ATOM      6  C   UNL     1      -3.296  -1.536  -0.408  1.00  0.00    +0.039 C 
ATOM      7  C   UNL     1      -3.198  -0.929   0.998  1.00  0.00    +0.066 C 
ATOM      8  C   UNL     1      -3.825   0.474   0.999  1.00  0.00    +0.039 C 
ATOM      9  C   UNL     1      -1.720  -0.822   1.408  1.00  0.00    +0.044 C 
ATOM     10  C   UNL     1      -1.073  -0.543  -0.998  1.00  0.00    +0.013 C 
ENDROOT
BRANCH   1  11
ATOM     11  C   UNL     1       0.592   0.108   0.835  1.00  0.00    +0.147 C 
BRANCH  11  12
ATOM     12  C   UNL     1       1.537   0.786  -0.201  1.00  0.00    +0.241 C 
ATOM     13  O   UNL     1       1.185   1.746  -0.889  1.00  0.00    -0.273 OA
BRANCH  12  14
ATOM     14  N   UNL     1       2.827   0.296  -0.284  1.00  0.00    -0.322 N 
ATOM     15  N   UNL     1       3.263   0.025  -3.716  1.00  0.00    -0.196 NA
ATOM     16  C   UNL     1       3.477   0.395  -2.636  1.00  0.00    +0.087 C 
ATOM     17  C   UNL     1       3.787   0.842  -1.260  1.00  0.00    +0.189 C 
ATOM     18  C   UNL     1       5.172   0.308  -0.817  1.00  0.00    +0.046 C 
ATOM     19  C   UNL     1       4.907  -0.755   0.218  1.00  0.00    +0.017 C 
ATOM     20  C   UNL     1       3.442  -0.699   0.546  1.00  0.00    +0.090 C 
ATOM     21  C   UNL     1       4.031  -1.952  -0.036  1.00  0.00    +0.031 C 
ENDBRANCH  12  14
ENDBRANCH  11  12
BRANCH  11  22
ATOM     22  N   UNL     1       0.840   0.753   2.144  1.00  0.00    -0.319 NA
ATOM     23  H   UNL     1       0.215   0.366   2.848  1.00  0.00    +0.119 HD
ATOM     24  H   UNL     1       0.603   1.744   2.070  1.00  0.00    +0.119 HD
ENDBRANCH  11  22
ENDBRANCH   1  11
BRANCH   7  25
ATOM     25  O   UNL     1      -3.871  -1.759   1.934  1.00  0.00    -0.390 OA
ATOM     26  H   UNL     1      -4.802  -1.826   1.659  1.00  0.00    +0.211 HD
ENDBRANCH   7  25
TORSDOF 5
