REMARK SMILES N#C[C@@H]1CCCN1C(=O)CNC12CC3CC(CC(O)(C3)C1)C2
REMARK SMILES IDX 11 1 10 3 8 4 9 5 7 6 1 7 2 8 3 9 4 10 5 11 6 12 12 13 22 14
REMARK SMILES IDX 21 15 13 16 16 17 18 18 14 19 15 20 17 21 20 22 19 23
REMARK H PARENT 11 2 19 24
ROOT
ATOM      1  N   UNL     1       0.320   0.733   0.534  1.00  0.00    -0.303 NA
ATOM      2  H   UNL     1       0.394   1.431   1.280  1.00  0.00    +0.123 HD
ENDROOT
BRANCH   1   3
ATOM      3  C   UNL     1       1.091   1.237  -0.613  1.00  0.00    +0.182 C 
BRANCH   3   4
ATOM      4  C   UNL     1       2.547   1.453  -0.177  1.00  0.00    +0.237 C 
ATOM      5  O   UNL     1       2.957   2.575   0.126  1.00  0.00    -0.273 OA
BRANCH   4   6
ATOM      6  N   UNL     1       3.365   0.347  -0.111  1.00  0.00    -0.326 N 
ATOM      7  N   UNL     1       6.367   1.258  -1.590  1.00  0.00    -0.196 NA
ATOM      8  C   UNL     1       5.647   0.932  -0.738  1.00  0.00    +0.087 C 
ATOM      9  C   UNL     1       4.750   0.467   0.344  1.00  0.00    +0.189 C 
ATOM     10  C   UNL     1       5.107  -0.959   0.781  1.00  0.00    +0.043 C 
ATOM     11  C   UNL     1       4.248  -1.834  -0.129  1.00  0.00    +0.025 C 
ATOM     12  C   UNL     1       2.953  -1.043  -0.233  1.00  0.00    +0.121 C 
ENDBRANCH   4   6
ENDBRANCH   3   4
ENDBRANCH   1   3
BRANCH   1  13
ATOM     13  C   UNL     1      -1.101   0.452   0.275  1.00  0.00    +0.022 C 
ATOM     14  C   UNL     1      -1.894   1.705  -0.180  1.00  0.00    +0.026 C 
ATOM     15  C   UNL     1      -1.295  -0.675  -0.768  1.00  0.00    +0.057 C 
ATOM     16  C   UNL     1      -1.706  -0.035   1.623  1.00  0.00    +0.026 C 
ATOM     17  C   UNL     1      -3.388   1.370  -0.342  1.00  0.00    -0.006 C 
ATOM     18  C   UNL     1      -2.791  -1.007  -0.926  1.00  0.00    +0.067 C 
ATOM     19  C   UNL     1      -3.199  -0.369   1.470  1.00  0.00    -0.006 C 
ATOM     20  C   UNL     1      -3.952   0.888   1.004  1.00  0.00    +0.007 C 
ATOM     21  C   UNL     1      -3.545   0.252  -1.385  1.00  0.00    +0.039 C 
ATOM     22  C   UNL     1      -3.361  -1.477   0.421  1.00  0.00    +0.039 C 
BRANCH  18  23
ATOM     23  O   UNL     1      -2.959  -2.024  -1.905  1.00  0.00    -0.390 OA
ATOM     24  H   UNL     1      -2.509  -2.826  -1.587  1.00  0.00    +0.211 HD
ENDBRANCH  18  23
ENDBRANCH   1  13
TORSDOF 5
