REMARK SMILES O=c1cc(-c2ccc(O)cc2)oc2cc(O)cc(O)c12
REMARK SMILES IDX 1 1 2 2 3 3 4 4 12 5 13 6 14 7 15 8 17 9 18 10 20 11 5 12
REMARK SMILES IDX 6 13 11 14 7 15 10 16 8 17 9 18 19 20 16 22
REMARK H PARENT 9 19 19 21 16 23
ROOT
ATOM      1  O   UNL     1       2.017   2.287  -2.030  1.00  0.00    -0.289 OA
ATOM      2  C   UNL     1       1.505   1.448  -1.297  1.00  0.00    +0.197 C 
ATOM      3  C   UNL     1       0.052   1.225  -1.279  1.00  0.00    +0.100 C 
ATOM      4  C   UNL     1      -0.454   0.300  -0.451  1.00  0.00    +0.138 C 
ATOM      5  O   UNL     1       0.309  -0.490   0.395  1.00  0.00    -0.456 OA
ATOM      6  C   UNL     1       1.670  -0.310   0.411  1.00  0.00    +0.146 A 
ATOM      7  C   UNL     1       2.404  -1.114   1.285  1.00  0.00    +0.094 A 
ATOM      8  C   UNL     1       3.788  -0.971   1.339  1.00  0.00    +0.123 A 
ATOM      9  C   UNL     1       4.446  -0.042   0.538  1.00  0.00    +0.093 A 
ATOM     10  C   UNL     1       3.709   0.758  -0.331  1.00  0.00    +0.134 A 
ATOM     11  C   UNL     1       2.319   0.624  -0.395  1.00  0.00    +0.107 A 
ENDROOT
BRANCH   4  12
ATOM     12  C   UNL     1      -1.902   0.023  -0.393  1.00  0.00    +0.018 A 
ATOM     13  C   UNL     1      -2.846   1.062  -0.350  1.00  0.00    +0.016 A 
ATOM     14  C   UNL     1      -2.360  -1.303  -0.354  1.00  0.00    +0.016 A 
ATOM     15  C   UNL     1      -4.215   0.783  -0.284  1.00  0.00    +0.047 A 
ATOM     16  C   UNL     1      -3.727  -1.583  -0.289  1.00  0.00    +0.047 A 
ATOM     17  C   UNL     1      -4.643  -0.540  -0.256  1.00  0.00    +0.115 A 
BRANCH  17  18
ATOM     18  O   UNL     1      -5.966  -0.859  -0.192  1.00  0.00    -0.508 OA
ATOM     19  H   UNL     1      -6.485  -0.038  -0.176  1.00  0.00    +0.293 HD
ENDBRANCH  17  18
ENDBRANCH   4  12
BRANCH  10  20
ATOM     20  O   UNL     1       4.407   1.654  -1.095  1.00  0.00    -0.507 OA
ATOM     21  H   UNL     1       3.767   2.145  -1.657  1.00  0.00    +0.293 HD
ENDBRANCH  10  20
BRANCH   8  22
ATOM     22  O   UNL     1       4.546  -1.735   2.177  1.00  0.00    -0.508 OA
ATOM     23  H   UNL     1       3.968  -2.333   2.678  1.00  0.00    +0.293 HD
ENDBRANCH   8  22
TORSDOF 4
