REMARK SMILES COc1cc(OC)cc(-c2nc(N)c(CN)c(-c3ccc(Cl)cc3Cl)n2)c1
REMARK SMILES IDX 10 1 11 2 12 3 14 4 17 5 26 6 9 7 3 8 4 9 27 10 5 11 8 12
REMARK SMILES IDX 2 13 1 14 6 15 7 16 13 17 18 20 19 21 24 22 20 23 23 24
REMARK SMILES IDX 21 25 25 26 22 27 15 28 16 29
REMARK H PARENT 13 18 13 19 16 30 16 31
ROOT
ATOM      1  C   UNL     1      -0.516  -0.272   0.752  1.00  0.00    +0.162 A 
ATOM      2  N   UNL     1      -0.432  -1.087   1.813  1.00  0.00    -0.211 NA
ATOM      3  C   UNL     1       0.752  -1.651   2.083  1.00  0.00    +0.132 A 
ATOM      4  C   UNL     1       1.889  -1.419   1.320  1.00  0.00    +0.034 A 
ATOM      5  C   UNL     1       1.701  -0.565   0.234  1.00  0.00    +0.082 A 
ATOM      6  N   UNL     1       0.518   0.022  -0.048  1.00  0.00    -0.227 NA
ENDROOT
BRANCH   1   7
ATOM      7  C   UNL     1      -1.821   0.347   0.449  1.00  0.00    +0.027 A 
ATOM      8  C   UNL     1      -3.239   1.736  -0.985  1.00  0.00    +0.123 A 
ATOM      9  C   UNL     1      -4.320   1.531  -0.123  1.00  0.00    +0.092 A 
ATOM     10  C   UNL     1      -2.005   1.149  -0.696  1.00  0.00    +0.058 A 
ATOM     11  C   UNL     1      -4.175   0.743   1.016  1.00  0.00    +0.123 A 
ATOM     12  C   UNL     1      -2.934   0.160   1.291  1.00  0.00    +0.058 A 
BRANCH   8  13
ATOM     13  O   UNL     1      -3.517   2.527  -2.067  1.00  0.00    -0.497 OA
ATOM     14  C   UNL     1      -2.463   2.739  -2.998  1.00  0.00    +0.278 C 
ENDBRANCH   8  13
BRANCH  11  15
ATOM     15  O   UNL     1      -5.153   0.467   1.933  1.00  0.00    -0.497 OA
ATOM     16  C   UNL     1      -6.438   1.023   1.688  1.00  0.00    +0.278 C 
ENDBRANCH  11  15
ENDBRANCH   1   7
BRANCH   3  17
ATOM     17  N   UNL     1       0.762  -2.485   3.205  1.00  0.00    -0.383 N 
ATOM     18  H   UNL     1       1.382  -2.125   3.922  1.00  0.00    +0.158 HD
ATOM     19  H   UNL     1       1.049  -3.425   2.952  1.00  0.00    +0.158 HD
ENDBRANCH   3  17
BRANCH   5  20
ATOM     20  C   UNL     1       2.768  -0.185  -0.702  1.00  0.00    +0.019 A 
ATOM     21  C   UNL     1       3.611   0.898  -0.385  1.00  0.00    +0.013 A 
ATOM     22  C   UNL     1       2.967  -0.845  -1.930  1.00  0.00    +0.051 A 
ATOM     23  C   UNL     1       4.634   1.291  -1.252  1.00  0.00    +0.021 A 
ATOM     24  C   UNL     1       3.991  -0.453  -2.798  1.00  0.00    +0.041 A 
ATOM     25  C   UNL     1       4.820   0.611  -2.452  1.00  0.00    +0.042 A 
ATOM     26 Cl   UNL     1       1.960  -2.162  -2.433  1.00  0.00    -0.084 Cl
ATOM     27 Cl   UNL     1       6.080   1.095  -3.519  1.00  0.00    -0.084 Cl
ENDBRANCH   5  20
BRANCH   4  28
ATOM     28  C   UNL     1       3.225  -2.026   1.639  1.00  0.00    +0.119 C 
BRANCH  28  29
ATOM     29  N   UNL     1       3.616  -3.061   0.692  1.00  0.00    -0.326 NA
ATOM     30  H   UNL     1       2.920  -3.805   0.670  1.00  0.00    +0.119 HD
ATOM     31  H   UNL     1       4.492  -3.489   0.986  1.00  0.00    +0.119 HD
ENDBRANCH  28  29
ENDBRANCH   4  28
TORSDOF 7
