REMARK SMILES Cc1cc(N2CCN([C@H]3CN[C@H](C(=O)N4CCSC4)C3)CC2)n(-c2ccccc2)n1
REMARK SMILES IDX 5 1 6 2 7 3 8 4 21 5 22 6 4 7 2 8 3 9 30 10 23 11 1 12 24 13
REMARK SMILES IDX 25 14 29 15 26 16 28 17 27 18 9 19 10 20 20 21 11 22 12 23
REMARK SMILES IDX 13 25 14 26 15 27 16 28 19 29 17 30 18 31
REMARK H PARENT 11 24
ROOT
ATOM      1  N   UNL     1      -2.075  -1.284  -0.108  1.00  0.00    -0.354 N 
ATOM      2  C   UNL     1      -1.028  -0.873   0.869  1.00  0.00    +0.133 C 
ATOM      3  C   UNL     1       0.003  -1.993   1.141  1.00  0.00    +0.106 C 
ATOM      4  N   UNL     1       0.639  -2.574  -0.058  1.00  0.00    -0.296 NA
ATOM      5  C   UNL     1      -0.239  -2.517  -1.242  1.00  0.00    +0.106 C 
ATOM      6  C   UNL     1      -1.742  -2.500  -0.884  1.00  0.00    +0.133 C 
ENDROOT
BRANCH   1   7
ATOM      7  C   UNL     1      -3.387  -1.093   0.266  1.00  0.00    +0.132 A 
ATOM      8  C   UNL     1      -5.466  -1.329   1.019  1.00  0.00    +0.062 A 
ATOM      9  C   UNL     1      -4.397  -2.021   0.421  1.00  0.00    +0.072 A 
ATOM     10  N   UNL     1      -5.187  -0.034   1.190  1.00  0.00    -0.171 NA
ATOM     11  N   UNL     1      -3.964   0.147   0.608  1.00  0.00    -0.217 N 
ATOM     12  C   UNL     1      -6.775  -1.879   1.460  1.00  0.00    +0.069 C 
BRANCH  11  13
ATOM     13  C   UNL     1      -3.484   1.477   0.396  1.00  0.00    +0.067 A 
ATOM     14  C   UNL     1      -2.467   1.759  -0.525  1.00  0.00    +0.028 A 
ATOM     15  C   UNL     1      -4.078   2.536   1.098  1.00  0.00    +0.028 A 
ATOM     16  C   UNL     1      -2.024   3.071  -0.709  1.00  0.00    +0.002 A 
ATOM     17  C   UNL     1      -3.629   3.843   0.915  1.00  0.00    +0.002 A 
ATOM     18  C   UNL     1      -2.598   4.111   0.016  1.00  0.00    +0.000 A 
ENDBRANCH  11  13
ENDBRANCH   1   7
BRANCH   4  19
ATOM     19  C   UNL     1       2.026  -2.136  -0.265  1.00  0.00    +0.072 C 
ATOM     20  C   UNL     1       2.769  -2.759  -1.453  1.00  0.00    +0.100 C 
ATOM     21  C   UNL     1       2.260  -0.636  -0.493  1.00  0.00    +0.049 C 
ATOM     22  N   UNL     1       3.991  -1.961  -1.525  1.00  0.00    -0.304 NA
ATOM     23  C   UNL     1       3.620  -0.568  -1.197  1.00  0.00    +0.145 C 
ATOM     24  H   UNL     1       4.458  -2.037  -2.426  1.00  0.00    +0.123 HD
BRANCH  23  25
ATOM     25  C   UNL     1       4.686   0.096  -0.290  1.00  0.00    +0.240 C 
ATOM     26  O   UNL     1       5.504  -0.562   0.360  1.00  0.00    -0.273 OA
BRANCH  25  27
ATOM     27  N   UNL     1       4.650   1.484  -0.191  1.00  0.00    -0.331 N 
ATOM     28  C   UNL     1       5.670   2.167   0.591  1.00  0.00    +0.131 C 
ATOM     29  C   UNL     1       3.928   2.355  -1.094  1.00  0.00    +0.189 C 
ATOM     30  C   UNL     1       5.195   3.581   0.876  1.00  0.00    +0.093 C 
ATOM     31  S   UNL     1       4.306   4.060  -0.626  1.00  0.00    -0.139 SA
ENDBRANCH  25  27
ENDBRANCH  23  25
ENDBRANCH   4  19
TORSDOF 5
