REMARK SMILES O=C1C[C@@H](c2ccc(O)cc2)Oc2cc(O)cc(O)c21
REMARK SMILES IDX 1 1 2 2 3 3 4 4 12 5 13 6 14 7 15 8 17 9 18 10 20 11 5 12
REMARK SMILES IDX 6 13 11 14 7 15 10 16 8 17 9 18 19 20 16 22
REMARK H PARENT 9 19 19 21 16 23
ROOT
ATOM      1  O   UNL     1       1.992  -1.560  -2.585  1.00  0.00    -0.294 OA
ATOM      2  C   UNL     1       1.452  -1.043  -1.609  1.00  0.00    +0.174 C 
ATOM      3  C   UNL     1      -0.028  -1.100  -1.366  1.00  0.00    +0.131 C 
ATOM      4  C   UNL     1      -0.431   0.161  -0.613  1.00  0.00    +0.211 C 
ATOM      5  O   UNL     1       0.263   0.253   0.643  1.00  0.00    -0.484 OA
ATOM      6  C   UNL     1       1.625   0.211   0.507  1.00  0.00    +0.138 A 
ATOM      7  C   UNL     1       2.374   0.780   1.536  1.00  0.00    +0.093 A 
ATOM      8  C   UNL     1       3.764   0.778   1.458  1.00  0.00    +0.123 A 
ATOM      9  C   UNL     1       4.422   0.207   0.372  1.00  0.00    +0.093 A 
ATOM     10  C   UNL     1       3.671  -0.379  -0.645  1.00  0.00    +0.133 A 
ATOM     11  C   UNL     1       2.274  -0.385  -0.577  1.00  0.00    +0.102 A 
ENDROOT
BRANCH   4  12
ATOM     12  C   UNL     1      -1.926   0.168  -0.351  1.00  0.00    -0.007 A 
ATOM     13  C   UNL     1      -2.484  -0.557   0.714  1.00  0.00    +0.011 A 
ATOM     14  C   UNL     1      -2.785   0.880  -1.205  1.00  0.00    +0.011 A 
ATOM     15  C   UNL     1      -3.863  -0.561   0.926  1.00  0.00    +0.046 A 
ATOM     16  C   UNL     1      -4.167   0.876  -0.993  1.00  0.00    +0.046 A 
ATOM     17  C   UNL     1      -4.693   0.154   0.072  1.00  0.00    +0.115 A 
BRANCH  17  18
ATOM     18  O   UNL     1      -6.034   0.122   0.316  1.00  0.00    -0.508 OA
ATOM     19  H   UNL     1      -6.483   0.674  -0.345  1.00  0.00    +0.293 HD
ENDBRANCH  17  18
ENDBRANCH   4  12
BRANCH  10  20
ATOM     20  O   UNL     1       4.370  -0.941  -1.679  1.00  0.00    -0.507 OA
ATOM     21  H   UNL     1       3.723  -1.332  -2.310  1.00  0.00    +0.293 HD
ENDBRANCH  10  20
BRANCH   8  22
ATOM     22  O   UNL     1       4.457   1.354   2.481  1.00  0.00    -0.508 OA
ATOM     23  H   UNL     1       5.409   1.273   2.302  1.00  0.00    +0.293 HD
ENDBRANCH   8  22
TORSDOF 4
