REMARK SMILES O=C([C@@H]1CCCN1)N1CCC[C@H]1B(O)O
REMARK SMILES IDX 8 1 9 2 10 3 11 4 12 5 2 6 1 7 3 8 4 9 7 10 5 11 6 12 13 14
REMARK SMILES IDX 14 15 15 17
REMARK H PARENT 7 13 14 16 15 18
ROOT
ATOM      1  N   UNL     1      -0.711  -0.556   0.393  1.00  0.00    -0.340 N 
ATOM      2  C   UNL     1      -1.654  -1.596   0.763  1.00  0.00    +0.119 C 
ATOM      3  C   UNL     1      -2.426  -1.787  -0.503  1.00  0.00    +0.023 C 
ATOM      4  C   UNL     1      -2.013  -0.707  -1.477  1.00  0.00    +0.024 C 
ATOM      5  C   UNL     1      -1.378   0.324  -0.567  1.00  0.00    +0.117 C 
ENDROOT
BRANCH   1   6
ATOM      6  C   UNL     1       0.616  -0.458   0.905  1.00  0.00    +0.239 C 
ATOM      7  O   UNL     1       0.966  -1.344   1.730  1.00  0.00    -0.273 OA
BRANCH   6   8
ATOM      8  C   UNL     1       1.549   0.602   0.516  1.00  0.00    +0.144 C 
ATOM      9  C   UNL     1       1.878   0.416  -0.968  1.00  0.00    +0.030 C 
ATOM     10  N   UNL     1       2.803   0.407   1.218  1.00  0.00    -0.306 NA
ATOM     11  C   UNL     1       3.395   0.195  -0.959  1.00  0.00    +0.017 C 
ATOM     12  C   UNL     1       3.752   1.006   0.285  1.00  0.00    +0.082 C 
ATOM     13  H   UNL     1       2.981  -0.640   1.149  1.00  0.00    +0.123 HD
ENDBRANCH   6   8
ENDBRANCH   1   6
BRANCH   5  14
ATOM     14  B   UNL     1      -2.410   1.282   0.090  1.00  0.00    +0.475 B 
BRANCH  14  15
ATOM     15  O   UNL     1      -2.552   2.652  -0.402  1.00  0.00    -0.426 OA
ATOM     16  H   UNL     1      -3.366   2.743  -0.958  1.00  0.00    +0.189 HD
ENDBRANCH  14  15
BRANCH  14  17
ATOM     17  O   UNL     1      -3.426   0.872   1.055  1.00  0.00    -0.426 OA
ATOM     18  H   UNL     1      -4.169   0.365   0.657  1.00  0.00    +0.189 HD
ENDBRANCH  14  17
ENDBRANCH   5  14
TORSDOF 5
