REMARK SMILES CC(C)[C@H](N)C(=O)N1CCC[C@H]1B(O)O
REMARK SMILES IDX 8 1 9 2 10 3 11 4 12 5 6 6 7 7 4 8 2 9 1 10 3 11 5 12 13 15
REMARK SMILES IDX 14 16 15 18
REMARK H PARENT 5 13 5 14 14 17 15 19
ROOT
ATOM      1  N   UNL     1      -0.773   0.191  -0.019  1.00  0.00    -0.340 N 
ATOM      2  C   UNL     1      -1.090   0.694  -1.337  1.00  0.00    +0.119 C 
ATOM      3  C   UNL     1      -2.415   1.356  -1.323  1.00  0.00    +0.023 C 
ATOM      4  C   UNL     1      -2.638   1.634   0.143  1.00  0.00    +0.024 C 
ATOM      5  C   UNL     1      -1.894   0.537   0.877  1.00  0.00    +0.117 C 
ENDROOT
BRANCH   1   6
ATOM      6  C   UNL     1       0.374  -0.501   0.399  1.00  0.00    +0.239 C 
ATOM      7  O   UNL     1       0.484  -0.882   1.624  1.00  0.00    -0.273 OA
BRANCH   6   8
ATOM      8  C   UNL     1       1.512  -0.847  -0.470  1.00  0.00    +0.144 C 
BRANCH   8   9
ATOM      9  C   UNL     1       2.852  -0.442   0.061  1.00  0.00    +0.009 C 
ATOM     10  C   UNL     1       3.023   1.056   0.155  1.00  0.00    +0.009 C 
ATOM     11  C   UNL     1       3.240  -1.144   1.317  1.00  0.00    +0.009 C 
ENDBRANCH   8   9
BRANCH   8  12
ATOM     12  N   UNL     1       1.263  -0.345  -1.781  1.00  0.00    -0.320 NA
ATOM     13  H   UNL     1       1.884   0.416  -2.112  1.00  0.00    +0.119 HD
ATOM     14  H   UNL     1       1.099  -1.093  -2.458  1.00  0.00    +0.119 HD
ENDBRANCH   8  12
ENDBRANCH   6   8
ENDBRANCH   1   6
BRANCH   5  15
ATOM     15  B   UNL     1      -2.905  -0.679   1.020  1.00  0.00    +0.475 B 
BRANCH  15  16
ATOM     16  O   UNL     1      -2.911  -1.541   2.204  1.00  0.00    -0.426 OA
ATOM     17  H   UNL     1      -3.428  -1.061   2.908  1.00  0.00    +0.189 HD
ENDBRANCH  15  16
BRANCH  15  18
ATOM     18  O   UNL     1      -3.356  -1.287  -0.240  1.00  0.00    -0.426 OA
ATOM     19  H   UNL     1      -4.282  -1.068  -0.455  1.00  0.00    +0.189 HD
ENDBRANCH  15  18
ENDBRANCH   5  15
TORSDOF 7
