REMARK SMILES N[C@H]1CCCN([P@@](N)(=O)NS(=O)(=O)O)C1=O
REMARK SMILES IDX 7 1 9 2 6 3 2 4 3 5 15 6 4 7 16 8 5 9 1 10 8 13 10 16 11 18
REMARK SMILES IDX 12 19 13 20 14 21
REMARK H PARENT 1 11 1 12 8 14 8 15 10 17 14 22
ROOT
ATOM      1  P   UNL     1       1.549  -0.137  -0.641  1.00  0.00    +0.320 P 
ATOM      2  O   UNL     1       2.739   0.417   0.085  1.00  0.00    -0.263 OA
ENDROOT
BRANCH   1   3
ATOM      3  N   UNL     1       0.086   0.490  -0.034  1.00  0.00    -0.267 N 
ATOM      4  C   UNL     1      -2.404   0.373   0.167  1.00  0.00    +0.141 C 
ATOM      5  C   UNL     1      -2.360   1.819   0.657  1.00  0.00    +0.030 C 
ATOM      6  C   UNL     1      -1.087  -0.086  -0.476  1.00  0.00    +0.246 C 
ATOM      7  C   UNL     1      -1.125   2.069   1.500  1.00  0.00    +0.024 C 
ATOM      8  O   UNL     1      -1.092  -1.040  -1.263  1.00  0.00    -0.273 OA
ATOM      9  C   UNL     1       0.122   1.759   0.685  1.00  0.00    +0.129 C 
BRANCH   4  10
ATOM     10  N   UNL     1      -2.726  -0.563   1.261  1.00  0.00    -0.320 NA
ATOM     11  H   UNL     1      -2.818  -1.496   0.842  1.00  0.00    +0.119 HD
ATOM     12  H   UNL     1      -3.655  -0.351   1.630  1.00  0.00    +0.119 HD
ENDBRANCH   4  10
ENDBRANCH   1   3
BRANCH   1  13
ATOM     13  N   UNL     1       1.500   0.157  -2.241  1.00  0.00    -0.251 NA
ATOM     14  H   UNL     1       2.347  -0.170  -2.698  1.00  0.00    +0.129 HD
ATOM     15  H   UNL     1       0.725  -0.318  -2.699  1.00  0.00    +0.129 HD
ENDBRANCH   1  13
BRANCH   1  16
ATOM     16  N   UNL     1       1.368  -1.773  -0.357  1.00  0.00    -0.109 NA
ATOM     17  H   UNL     1       0.536  -2.227  -0.732  1.00  0.00    +0.154 HD
BRANCH  16  18
ATOM     18  S   UNL     1       2.733  -2.621  -0.647  1.00  0.00    +0.341 S 
ATOM     19  O   UNL     1       3.491  -1.961  -1.687  1.00  0.00    -0.181 OA
ATOM     20  O   UNL     1       2.311  -3.992  -0.798  1.00  0.00    -0.181 OA
BRANCH  18  21
ATOM     21  O   UNL     1       3.555  -2.470   0.724  1.00  0.00    -0.273 OA
ATOM     22  H   UNL     1       3.981  -1.566   0.775  1.00  0.00    +0.235 HD
ENDBRANCH  18  21
ENDBRANCH  16  18
ENDBRANCH   1  16
TORSDOF 6
