REMARK SMILES N#C[C@@H]1C[C@@H]2C[C@@H]2N1C(=O)[C@@H](N)C12C[C@H]3C[C@@H](C1)C[C@](O)(C3)C2
REMARK SMILES IDX 13 1 14 2 15 3 16 4 17 5 18 6 19 7 20 8 22 9 23 10 11 11
REMARK SMILES IDX 9 12 10 13 8 14 1 15 2 16 3 17 4 18 5 19 7 20 6 21 12 22
REMARK SMILES IDX 21 25
REMARK H PARENT 12 23 12 24 21 26
ROOT
ATOM      1  C   UNL     1      -0.995   0.412   0.075  1.00  0.00    -0.002 C 
ATOM      2  C   UNL     1      -1.553   0.794  -1.326  1.00  0.00    +0.013 C 
ATOM      3  C   UNL     1      -2.737  -0.110  -1.720  1.00  0.00    -0.007 C 
ATOM      4  C   UNL     1      -2.267  -1.572  -1.753  1.00  0.00    +0.007 C 
ATOM      5  C   UNL     1      -1.750  -1.989  -0.367  1.00  0.00    -0.007 C 
ATOM      6  C   UNL     1      -0.570  -1.084   0.029  1.00  0.00    +0.013 C 
ATOM      7  C   UNL     1      -2.875  -1.831   0.663  1.00  0.00    +0.039 C 
ATOM      8  C   UNL     1      -3.344  -0.370   0.705  1.00  0.00    +0.066 C 
ATOM      9  C   UNL     1      -3.859   0.041  -0.683  1.00  0.00    +0.039 C 
ATOM     10  C   UNL     1      -2.162   0.533   1.099  1.00  0.00    +0.044 C 
ENDROOT
BRANCH   1  11
ATOM     11  C   UNL     1       0.197   1.313   0.535  1.00  0.00    +0.147 C 
BRANCH  11  12
ATOM     12  C   UNL     1       1.448   1.183  -0.380  1.00  0.00    +0.241 C 
ATOM     13  O   UNL     1       1.461   1.723  -1.491  1.00  0.00    -0.273 OA
BRANCH  12  14
ATOM     14  N   UNL     1       2.529   0.457   0.077  1.00  0.00    -0.322 N 
ATOM     15  N   UNL     1       3.230   1.814   3.196  1.00  0.00    -0.196 NA
ATOM     16  C   UNL     1       3.034   0.973   2.419  1.00  0.00    +0.087 C 
ATOM     17  C   UNL     1       2.762  -0.095   1.434  1.00  0.00    +0.189 C 
ATOM     18  C   UNL     1       3.992  -1.027   1.291  1.00  0.00    +0.046 C 
ATOM     19  C   UNL     1       4.637  -0.674  -0.023  1.00  0.00    +0.017 C 
ATOM     20  C   UNL     1       3.685   0.228  -0.755  1.00  0.00    +0.090 C 
ATOM     21  C   UNL     1       5.052   0.728  -0.379  1.00  0.00    +0.031 C 
ENDBRANCH  12  14
ENDBRANCH  11  12
BRANCH  11  22
ATOM     22  N   UNL     1      -0.177   2.744   0.594  1.00  0.00    -0.319 NA
ATOM     23  H   UNL     1       0.599   3.273   0.997  1.00  0.00    +0.119 HD
ATOM     24  H   UNL     1      -0.234   3.086  -0.371  1.00  0.00    +0.119 HD
ENDBRANCH  11  22
ENDBRANCH   1  11
BRANCH   8  25
ATOM     25  O   UNL     1      -4.384  -0.250   1.664  1.00  0.00    -0.390 OA
ATOM     26  H   UNL     1      -4.658   0.683   1.691  1.00  0.00    +0.211 HD
ENDBRANCH   8  25
TORSDOF 5
