REMARK SMILES CC(C)C[C@H](NC(=O)[C@@H](O)[C@H](N)Cc1ccccc1)C(=O)O
REMARK SMILES IDX 6 1 7 2 8 3 5 5 4 6 2 7 1 8 3 9 20 10 21 11 22 12 9 14 10 15
REMARK SMILES IDX 11 17 12 18 13 21 14 22 15 23 19 24 16 25 18 26 17 27
REMARK H PARENT 6 4 22 13 10 16 12 19 12 20
ROOT
ATOM      1  N   UNL     1      -1.742  -0.271  -0.015  1.00  0.00    -0.340 N 
ATOM      2  C   UNL     1      -0.410  -0.042  -0.313  1.00  0.00    +0.251 C 
ATOM      3  O   UNL     1      -0.039   0.728  -1.191  1.00  0.00    -0.272 OA
ATOM      4  H   UNL     1      -1.903  -0.675   0.901  1.00  0.00    +0.164 HD
ENDROOT
BRANCH   1   5
ATOM      5  C   UNL     1      -2.790   0.596  -0.542  1.00  0.00    +0.192 C 
BRANCH   5   6
ATOM      6  C   UNL     1      -4.086  -0.167  -0.879  1.00  0.00    +0.040 C 
BRANCH   6   7
ATOM      7  C   UNL     1      -4.746  -1.091   0.173  1.00  0.00    -0.015 C 
ATOM      8  C   UNL     1      -4.911  -0.458   1.553  1.00  0.00    +0.007 C 
ATOM      9  C   UNL     1      -4.067  -2.459   0.285  1.00  0.00    +0.007 C 
ENDBRANCH   6   7
ENDBRANCH   5   6
BRANCH   5  10
ATOM     10  C   UNL     1      -3.057   1.809   0.365  1.00  0.00    +0.326 C 
ATOM     11  O   UNL     1      -3.875   2.694   0.164  1.00  0.00    -0.250 OA
BRANCH  10  12
ATOM     12  O   UNL     1      -2.300   1.838   1.486  1.00  0.00    -0.480 OA
ATOM     13  H   UNL     1      -2.572   2.668   1.929  1.00  0.00    +0.296 HD
ENDBRANCH  10  12
ENDBRANCH   5  10
ENDBRANCH   1   5
BRANCH   2  14
ATOM     14  C   UNL     1       0.549  -0.869   0.569  1.00  0.00    +0.220 C 
BRANCH  14  15
ATOM     15  O   UNL     1       0.173  -2.257   0.444  1.00  0.00    -0.382 OA
ATOM     16  H   UNL     1       0.281  -2.484  -0.497  1.00  0.00    +0.211 HD
ENDBRANCH  14  15
BRANCH  14  17
ATOM     17  C   UNL     1       2.036  -0.683   0.178  1.00  0.00    +0.093 C 
BRANCH  17  18
ATOM     18  N   UNL     1       2.866  -1.701   0.867  1.00  0.00    -0.325 NA
ATOM     19  H   UNL     1       2.425  -2.616   0.754  1.00  0.00    +0.119 HD
ATOM     20  H   UNL     1       3.779  -1.745   0.414  1.00  0.00    +0.119 HD
ENDBRANCH  17  18
BRANCH  17  21
ATOM     21  C   UNL     1       2.552   0.731   0.537  1.00  0.00    +0.057 C 
BRANCH  21  22
ATOM     22  C   UNL     1       3.876   1.060  -0.119  1.00  0.00    -0.046 A 
ATOM     23  C   UNL     1       3.915   1.484  -1.455  1.00  0.00    +0.004 A 
ATOM     24  C   UNL     1       5.078   0.927   0.590  1.00  0.00    +0.004 A 
ATOM     25  C   UNL     1       5.135   1.777  -2.067  1.00  0.00    +0.000 A 
ATOM     26  C   UNL     1       6.298   1.220  -0.025  1.00  0.00    +0.000 A 
ATOM     27  C   UNL     1       6.326   1.645  -1.353  1.00  0.00    +0.000 A 
ENDBRANCH  21  22
ENDBRANCH  17  21
ENDBRANCH  14  17
ENDBRANCH   2  14
TORSDOF 11
