REMARK SMILES Cn1c(=O)cc(N2CCC[C@@H](N)C2)n(Cc2ccccc2C#N)c1=O
REMARK SMILES IDX 1 1 2 2 3 3 4 4 5 5 6 6 14 7 24 8 25 9 15 10 16 11 17 12
REMARK SMILES IDX 21 13 18 14 20 15 22 16 19 17 23 18 7 19 8 20 13 21 9 22
REMARK SMILES IDX 11 23 10 24 12 25
REMARK H PARENT 12 26 12 27
ROOT
ATOM      1  C   UNL     1       0.325   4.498   2.542  1.00  0.00    +0.158 C 
ATOM      2  N   UNL     1      -0.010   3.278   1.834  1.00  0.00    -0.263 N 
ATOM      3  C   UNL     1      -1.120   2.574   2.234  1.00  0.00    +0.258 C 
ATOM      4  O   UNL     1      -1.859   2.887   3.165  1.00  0.00    -0.269 OA
ATOM      5  C   UNL     1      -1.420   1.360   1.473  1.00  0.00    +0.117 C 
ATOM      6  C   UNL     1      -0.608   0.923   0.501  1.00  0.00    +0.118 C 
ATOM      7  N   UNL     1       0.547   1.640   0.223  1.00  0.00    -0.275 N 
ATOM      8  C   UNL     1       0.887   2.821   0.880  1.00  0.00    +0.332 C 
ATOM      9  O   UNL     1       1.937   3.426   0.648  1.00  0.00    -0.247 OA
ENDROOT
BRANCH   7  10
ATOM     10  C   UNL     1       1.481   1.143  -0.797  1.00  0.00    +0.166 C 
BRANCH  10  11
ATOM     11  C   UNL     1       2.363  -0.001  -0.318  1.00  0.00    -0.010 A 
ATOM     12  C   UNL     1       3.079   0.129   0.887  1.00  0.00    +0.007 A 
ATOM     13  C   UNL     1       2.535  -1.180  -1.071  1.00  0.00    +0.057 A 
ATOM     14  C   UNL     1       3.909  -0.894   1.350  1.00  0.00    +0.000 A 
ATOM     15  C   UNL     1       3.372  -2.204  -0.597  1.00  0.00    +0.020 A 
ATOM     16  C   UNL     1       1.881  -1.381  -2.333  1.00  0.00    +0.099 C 
ATOM     17  C   UNL     1       4.053  -2.063   0.611  1.00  0.00    +0.001 A 
ATOM     18  N   UNL     1       1.364  -1.558  -3.357  1.00  0.00    -0.192 NA
ENDBRANCH  10  11
ENDBRANCH   7  10
BRANCH   6  19
ATOM     19  N   UNL     1      -0.939  -0.239  -0.211  1.00  0.00    -0.356 N 
ATOM     20  C   UNL     1      -0.890  -1.551   0.464  1.00  0.00    +0.118 C 
ATOM     21  C   UNL     1      -1.920  -0.123  -1.322  1.00  0.00    +0.136 C 
ATOM     22  C   UNL     1      -2.277  -2.171   0.563  1.00  0.00    +0.023 C 
ATOM     23  C   UNL     1      -2.309  -1.498  -1.902  1.00  0.00    +0.070 C 
ATOM     24  C   UNL     1      -2.912  -2.396  -0.811  1.00  0.00    +0.022 C 
BRANCH  23  25
ATOM     25  N   UNL     1      -3.238  -1.389  -3.033  1.00  0.00    -0.326 NA
ATOM     26  H   UNL     1      -3.410  -2.316  -3.422  1.00  0.00    +0.119 HD
ATOM     27  H   UNL     1      -4.143  -1.041  -2.717  1.00  0.00    +0.119 HD
ENDBRANCH  23  25
ENDBRANCH   6  19
TORSDOF 4
