REMARK SMILES Cc1cc2ncc(C(=O)NCC(C)(C)NCC(=O)N3CCC[C@H]3C#N)cn2n1
REMARK SMILES IDX 12 1 13 2 14 3 11 4 10 5 8 6 9 7 7 9 2 10 3 11 28 12 4 13
REMARK SMILES IDX 27 14 5 15 26 16 6 17 1 18 15 19 16 21 17 22 18 23 19 24
REMARK SMILES IDX 20 25 23 26 21 27 22 28 24 29 25 30
REMARK H PARENT 10 8 15 20
ROOT
ATOM      1  C   UNL     1      -0.868   0.050   0.706  1.00  0.00    +0.030 C 
ATOM      2  C   UNL     1      -0.429  -0.835  -0.473  1.00  0.00    +0.030 C 
ATOM      3  C   UNL     1      -0.675  -0.757   2.008  1.00  0.00    +0.030 C 
ENDROOT
BRANCH   1   4
ATOM      4  C   UNL     1      -0.034   1.370   0.782  1.00  0.00    +0.138 C 
BRANCH   4   5
ATOM      5  N   UNL     1       1.386   1.182   1.048  1.00  0.00    -0.350 N 
ATOM      6  C   UNL     1       2.306   1.096   0.031  1.00  0.00    +0.254 C 
ATOM      7  O   UNL     1       2.007   1.169  -1.156  1.00  0.00    -0.269 OA
ATOM      8  H   UNL     1       1.649   0.988   2.004  1.00  0.00    +0.163 HD
BRANCH   6   9
ATOM      9  C   UNL     1       3.706   0.868   0.458  1.00  0.00    +0.076 C 
ATOM     10  C   UNL     1       7.931  -0.545   0.094  1.00  0.00    +0.062 A 
ATOM     11  C   UNL     1       7.644   0.039   1.344  1.00  0.00    +0.074 A 
ATOM     12  N   UNL     1       6.869  -0.539  -0.718  1.00  0.00    -0.172 NA
ATOM     13  C   UNL     1       6.325   0.419   1.276  1.00  0.00    +0.155 A 
ATOM     14  N   UNL     1       5.884   0.051   0.001  1.00  0.00    -0.222 N 
ATOM     15  N   UNL     1       5.506   1.039   2.179  1.00  0.00    -0.236 NA
ATOM     16  C   UNL     1       4.573   0.287  -0.388  1.00  0.00    +0.130 C 
ATOM     17  C   UNL     1       4.287   1.250   1.777  1.00  0.00    +0.129 C 
ATOM     18  C   UNL     1       9.219  -1.117  -0.368  1.00  0.00    +0.069 C 
ENDBRANCH   6   9
ENDBRANCH   4   5
ENDBRANCH   1   4
BRANCH   1  19
ATOM     19  N   UNL     1      -2.324   0.320   0.637  1.00  0.00    -0.302 NA
ATOM     20  H   UNL     1      -2.615   0.867   1.452  1.00  0.00    +0.123 HD
BRANCH  19  21
ATOM     21  C   UNL     1      -2.784   1.022  -0.571  1.00  0.00    +0.182 C 
BRANCH  21  22
ATOM     22  C   UNL     1      -4.290   1.287  -0.445  1.00  0.00    +0.237 C 
ATOM     23  O   UNL     1      -4.710   2.391  -0.094  1.00  0.00    -0.273 OA
BRANCH  22  24
ATOM     24  N   UNL     1      -5.147   0.243  -0.708  1.00  0.00    -0.326 N 
ATOM     25  C   UNL     1      -4.785  -1.088  -1.171  1.00  0.00    +0.121 C 
ATOM     26  C   UNL     1      -6.593   0.403  -0.579  1.00  0.00    +0.189 C 
ATOM     27  C   UNL     1      -6.088  -1.875  -1.138  1.00  0.00    +0.025 C 
ATOM     28  C   UNL     1      -7.148  -0.798  -1.352  1.00  0.00    +0.043 C 
ATOM     29  C   UNL     1      -7.034   0.376   0.835  1.00  0.00    +0.087 C 
ATOM     30  N   UNL     1      -7.400   0.320   1.937  1.00  0.00    -0.196 NA
ENDBRANCH  22  24
ENDBRANCH  21  22
ENDBRANCH  19  21
ENDBRANCH   1  19
TORSDOF 7
