MODEL 1
REMARK VINA RESULT:    -9.339      0.000      0.000
REMARK INTER + INTRA:         -13.099
REMARK INTER:                 -12.342
REMARK INTRA:                  -0.757
REMARK UNBOUND:                -0.757
REMARK SMILES C[C@H](c1nc(-c2ccc(S(C)(=O)=O)cc2)no1)[C@H](N)C(=O)N1CCCC1
REMARK SMILES IDX 3 1 4 2 5 3 16 4 17 5 2 6 1 7 18 8 19 9 20 12 21 13 22 14
REMARK SMILES IDX 23 15 26 16 24 17 25 18 6 19 7 20 15 21 8 22 14 23 9 24
REMARK SMILES IDX 10 25 12 26 13 27 11 28
REMARK H PARENT 19 10 19 11
ROOT
ATOM      1  C   UNL     1      43.373  34.897  15.286  1.00  0.00    +0.231 A 
ATOM      2  N   UNL     1      43.878  35.404  16.386  1.00  0.00    -0.191 NA
ATOM      3  C   UNL     1      45.076  35.931  15.955  1.00  0.00    +0.202 A 
ATOM      4  N   UNL     1      45.290  35.783  14.636  1.00  0.00    -0.057 NA
ATOM      5  O   UNL     1      44.158  35.107  14.190  1.00  0.00    -0.339 OA
ENDROOT
BRANCH   1   6
ATOM      6  C   UNL     1      42.066  34.196  15.080  1.00  0.00    +0.102 C 
ATOM      7  C   UNL     1      42.263  32.703  15.369  1.00  0.00    +0.020 C 
BRANCH   6   8
ATOM      8  C   UNL     1      40.939  34.827  15.947  1.00  0.00    +0.153 C 
BRANCH   8   9
ATOM      9  N   UNL     1      40.874  34.273  17.324  1.00  0.00    -0.319 NA
ATOM     10  H   UNL     1      41.140  33.287  17.292  1.00  0.00    +0.119 HD
ATOM     11  H   UNL     1      41.548  34.737  17.929  1.00  0.00    +0.119 HD
ENDBRANCH   8   9
BRANCH   8  12
ATOM     12  C   UNL     1      39.553  34.592  15.286  1.00  0.00    +0.240 C 
ATOM     13  O   UNL     1      38.829  33.657  15.637  1.00  0.00    -0.273 OA
ATOM     14  N   UNL     1      39.143  35.497  14.328  1.00  0.00    -0.341 N 
ATOM     15  C   UNL     1      39.847  36.689  13.885  1.00  0.00    +0.119 C 
ATOM     16  C   UNL     1      37.835  35.394  13.707  1.00  0.00    +0.119 C 
ATOM     17  C   UNL     1      39.036  37.181  12.692  1.00  0.00    +0.023 C 
ATOM     18  C   UNL     1      37.620  36.746  13.042  1.00  0.00    +0.023 C 
ENDBRANCH   8  12
ENDBRANCH   6   8
ENDBRANCH   1   6
BRANCH   3  19
ATOM     19  C   UNL     1      46.009  36.589  16.865  1.00  0.00    +0.023 A 
ATOM     20  C   UNL     1      47.267  36.029  17.144  1.00  0.00    +0.013 A 
ATOM     21  C   UNL     1      45.657  37.805  17.477  1.00  0.00    +0.013 A 
ATOM     22  C   UNL     1      48.153  36.665  18.019  1.00  0.00    +0.021 A 
ATOM     23  C   UNL     1      46.538  38.447  18.351  1.00  0.00    +0.021 A 
ATOM     24  C   UNL     1      47.778  37.864  18.627  1.00  0.00    +0.067 A 
BRANCH  24  25
ATOM     25  S   UNL     1      48.902  38.683  19.733  1.00  0.00    +0.175 S 
ATOM     26  O   UNL     1      48.836  40.105  19.452  1.00  0.00    -0.224 OA
ATOM     27  O   UNL     1      48.649  38.176  21.069  1.00  0.00    -0.224 OA
ATOM     28  C   UNL     1      50.490  38.092  19.208  1.00  0.00    +0.163 C 
ENDBRANCH  24  25
ENDBRANCH   3  19
TORSDOF 6
ENDMDL
MODEL 2
REMARK VINA RESULT:    -9.130      5.789      9.370
REMARK INTER + INTRA:         -12.822
REMARK INTER:                 -12.060
REMARK INTRA:                  -0.762
REMARK UNBOUND:                -0.757
REMARK SMILES C[C@H](c1nc(-c2ccc(S(C)(=O)=O)cc2)no1)[C@H](N)C(=O)N1CCCC1
REMARK SMILES IDX 3 1 4 2 5 3 16 4 17 5 2 6 1 7 18 8 19 9 20 12 21 13 22 14
REMARK SMILES IDX 23 15 26 16 24 17 25 18 6 19 7 20 15 21 8 22 14 23 9 24
REMARK SMILES IDX 10 25 12 26 13 27 11 28
REMARK H PARENT 19 10 19 11
ROOT
ATOM      1  C   UNL     1      42.002  32.751  14.446  1.00  0.00    +0.231 A 
ATOM      2  N   UNL     1      41.856  31.515  14.031  1.00  0.00    -0.191 NA
ATOM      3  C   UNL     1      42.015  31.632  12.667  1.00  0.00    +0.202 A 
ATOM      4  N   UNL     1      42.282  32.885  12.258  1.00  0.00    -0.057 NA
ATOM      5  O   UNL     1      42.283  33.625  13.437  1.00  0.00    -0.339 OA
ENDROOT
BRANCH   1   6
ATOM      6  C   UNL     1      41.963  33.291  15.842  1.00  0.00    +0.102 C 
ATOM      7  C   UNL     1      43.399  33.363  16.377  1.00  0.00    +0.020 C 
BRANCH   6   8
ATOM      8  C   UNL     1      41.236  34.665  15.900  1.00  0.00    +0.153 C 
BRANCH   8   9
ATOM      9  N   UNL     1      41.233  35.274  17.255  1.00  0.00    -0.319 NA
ATOM     10  H   UNL     1      41.859  36.083  17.251  1.00  0.00    +0.119 HD
ATOM     11  H   UNL     1      40.307  35.625  17.488  1.00  0.00    +0.119 HD
ENDBRANCH   8   9
BRANCH   8  12
ATOM     12  C   UNL     1      39.755  34.512  15.456  1.00  0.00    +0.240 C 
ATOM     13  O   UNL     1      39.014  33.679  15.983  1.00  0.00    -0.273 OA
ATOM     14  N   UNL     1      39.289  35.376  14.487  1.00  0.00    -0.341 N 
ATOM     15  C   UNL     1      40.019  36.460  13.849  1.00  0.00    +0.119 C 
ATOM     16  C   UNL     1      37.902  35.351  14.061  1.00  0.00    +0.119 C 
ATOM     17  C   UNL     1      39.090  36.935  12.739  1.00  0.00    +0.023 C 
ATOM     18  C   UNL     1      37.707  36.663  13.314  1.00  0.00    +0.023 C 
ENDBRANCH   8  12
ENDBRANCH   6   8
ENDBRANCH   1   6
BRANCH   3  19
ATOM     19  C   UNL     1      41.906  30.486  11.769  1.00  0.00    +0.023 A 
ATOM     20  C   UNL     1      42.078  30.631  10.382  1.00  0.00    +0.013 A 
ATOM     21  C   UNL     1      41.628  29.209  12.288  1.00  0.00    +0.013 A 
ATOM     22  C   UNL     1      41.969  29.528   9.530  1.00  0.00    +0.021 A 
ATOM     23  C   UNL     1      41.518  28.102  11.442  1.00  0.00    +0.021 A 
ATOM     24  C   UNL     1      41.677  28.272  10.065  1.00  0.00    +0.067 A 
BRANCH  24  25
ATOM     25  S   UNL     1      41.547  26.864   8.989  1.00  0.00    +0.175 S 
ATOM     26  O   UNL     1      40.540  27.167   7.989  1.00  0.00    -0.224 OA
ATOM     27  O   UNL     1      42.892  26.486   8.598  1.00  0.00    -0.224 OA
ATOM     28  C   UNL     1      40.903  25.599  10.053  1.00  0.00    +0.163 C 
ENDBRANCH  24  25
ENDBRANCH   3  19
TORSDOF 6
ENDMDL
MODEL 3
REMARK VINA RESULT:    -8.540      5.108      8.762
REMARK INTER + INTRA:         -12.042
REMARK INTER:                 -11.368
REMARK INTRA:                  -0.674
REMARK UNBOUND:                -0.757
REMARK SMILES C[C@H](c1nc(-c2ccc(S(C)(=O)=O)cc2)no1)[C@H](N)C(=O)N1CCCC1
REMARK SMILES IDX 3 1 4 2 5 3 16 4 17 5 2 6 1 7 18 8 19 9 20 12 21 13 22 14
REMARK SMILES IDX 23 15 26 16 24 17 25 18 6 19 7 20 15 21 8 22 14 23 9 24
REMARK SMILES IDX 10 25 12 26 13 27 11 28
REMARK H PARENT 19 10 19 11
ROOT
ATOM      1  C   UNL     1      42.638  33.060  15.819  1.00  0.00    +0.231 A 
ATOM      2  N   UNL     1      43.035  32.561  14.671  1.00  0.00    -0.191 NA
ATOM      3  C   UNL     1      41.980  31.750  14.313  1.00  0.00    +0.202 A 
ATOM      4  N   UNL     1      40.960  31.770  15.187  1.00  0.00    -0.057 NA
ATOM      5  O   UNL     1      41.390  32.645  16.180  1.00  0.00    -0.339 OA
ENDROOT
BRANCH   1   6
ATOM      6  C   UNL     1      43.332  34.038  16.716  1.00  0.00    +0.102 C 
ATOM      7  C   UNL     1      44.743  33.511  17.011  1.00  0.00    +0.020 C 
BRANCH   6   8
ATOM      8  C   UNL     1      43.347  35.465  16.100  1.00  0.00    +0.153 C 
BRANCH   8   9
ATOM      9  N   UNL     1      44.079  36.458  16.927  1.00  0.00    -0.319 NA
ATOM     10  H   UNL     1      43.504  37.300  17.011  1.00  0.00    +0.119 HD
ATOM     11  H   UNL     1      44.218  36.106  17.870  1.00  0.00    +0.119 HD
ENDBRANCH   8   9
BRANCH   8  12
ATOM     12  C   UNL     1      41.895  35.991  15.920  1.00  0.00    +0.240 C 
ATOM     13  O   UNL     1      41.280  36.499  16.860  1.00  0.00    -0.273 OA
ATOM     14  N   UNL     1      41.343  35.913  14.658  1.00  0.00    -0.341 N 
ATOM     15  C   UNL     1      41.981  35.428  13.445  1.00  0.00    +0.119 C 
ATOM     16  C   UNL     1      40.018  36.442  14.383  1.00  0.00    +0.119 C 
ATOM     17  C   UNL     1      40.854  35.385  12.420  1.00  0.00    +0.023 C 
ATOM     18  C   UNL     1      39.947  36.524  12.865  1.00  0.00    +0.023 C 
ENDBRANCH   8  12
ENDBRANCH   6   8
ENDBRANCH   1   6
BRANCH   3  19
ATOM     19  C   UNL     1      41.992  30.954  13.089  1.00  0.00    +0.023 A 
ATOM     20  C   UNL     1      41.665  29.588  13.108  1.00  0.00    +0.013 A 
ATOM     21  C   UNL     1      42.331  31.553  11.863  1.00  0.00    +0.013 A 
ATOM     22  C   UNL     1      41.681  28.834  11.930  1.00  0.00    +0.021 A 
ATOM     23  C   UNL     1      42.348  30.806  10.682  1.00  0.00    +0.021 A 
ATOM     24  C   UNL     1      42.035  29.445  10.727  1.00  0.00    +0.067 A 
BRANCH  24  25
ATOM     25  S   UNL     1      42.048  28.495   9.225  1.00  0.00    +0.175 S 
ATOM     26  O   UNL     1      40.786  28.728   8.548  1.00  0.00    -0.224 OA
ATOM     27  O   UNL     1      43.310  28.752   8.556  1.00  0.00    -0.224 OA
ATOM     28  C   UNL     1      42.060  26.819   9.806  1.00  0.00    +0.163 C 
ENDBRANCH  24  25
ENDBRANCH   3  19
TORSDOF 6
ENDMDL
MODEL 4
REMARK VINA RESULT:    -8.115      5.187      9.470
REMARK INTER + INTRA:         -11.481
REMARK INTER:                 -10.839
REMARK INTRA:                  -0.642
REMARK UNBOUND:                -0.757
REMARK SMILES C[C@H](c1nc(-c2ccc(S(C)(=O)=O)cc2)no1)[C@H](N)C(=O)N1CCCC1
REMARK SMILES IDX 3 1 4 2 5 3 16 4 17 5 2 6 1 7 18 8 19 9 20 12 21 13 22 14
REMARK SMILES IDX 23 15 26 16 24 17 25 18 6 19 7 20 15 21 8 22 14 23 9 24
REMARK SMILES IDX 10 25 12 26 13 27 11 28
REMARK H PARENT 19 10 19 11
ROOT
ATOM      1  C   UNL     1      42.124  34.070  14.661  1.00  0.00    +0.231 A 
ATOM      2  N   UNL     1      42.596  33.588  13.535  1.00  0.00    -0.191 NA
ATOM      3  C   UNL     1      42.115  32.297  13.533  1.00  0.00    +0.202 A 
ATOM      4  N   UNL     1      41.350  32.002  14.598  1.00  0.00    -0.057 NA
ATOM      5  O   UNL     1      41.348  33.178  15.342  1.00  0.00    -0.339 OA
ENDROOT
BRANCH   1   6
ATOM      6  C   UNL     1      42.275  35.443  15.240  1.00  0.00    +0.102 C 
ATOM      7  C   UNL     1      40.994  36.236  14.951  1.00  0.00    +0.020 C 
BRANCH   6   8
ATOM      8  C   UNL     1      42.612  35.387  16.757  1.00  0.00    +0.153 C 
BRANCH   8   9
ATOM      9  N   UNL     1      41.639  36.124  17.606  1.00  0.00    -0.319 NA
ATOM     10  H   UNL     1      41.211  35.464  18.259  1.00  0.00    +0.119 HD
ATOM     11  H   UNL     1      42.115  36.824  18.170  1.00  0.00    +0.119 HD
ENDBRANCH   8   9
BRANCH   8  12
ATOM     12  C   UNL     1      44.016  35.997  17.022  1.00  0.00    +0.240 C 
ATOM     13  O   UNL     1      44.306  37.127  16.621  1.00  0.00    -0.273 OA
ATOM     14  N   UNL     1      44.905  35.249  17.765  1.00  0.00    -0.341 N 
ATOM     15  C   UNL     1      44.668  33.951  18.376  1.00  0.00    +0.119 C 
ATOM     16  C   UNL     1      46.214  35.769  18.119  1.00  0.00    +0.119 C 
ATOM     17  C   UNL     1      46.038  33.522  18.888  1.00  0.00    +0.023 C 
ATOM     18  C   UNL     1      46.703  34.849  19.228  1.00  0.00    +0.023 C 
ENDBRANCH   8  12
ENDBRANCH   6   8
ENDBRANCH   1   6
BRANCH   3  19
ATOM     19  C   UNL     1      42.417  31.356  12.459  1.00  0.00    +0.023 A 
ATOM     20  C   UNL     1      41.839  31.497  11.186  1.00  0.00    +0.013 A 
ATOM     21  C   UNL     1      43.304  30.289  12.685  1.00  0.00    +0.013 A 
ATOM     22  C   UNL     1      42.133  30.589  10.164  1.00  0.00    +0.021 A 
ATOM     23  C   UNL     1      43.603  29.379  11.668  1.00  0.00    +0.021 A 
ATOM     24  C   UNL     1      43.004  29.528  10.415  1.00  0.00    +0.067 A 
BRANCH  24  25
ATOM     25  S   UNL     1      43.389  28.377   9.118  1.00  0.00    +0.175 S 
ATOM     26  O   UNL     1      42.593  28.738   7.960  1.00  0.00    -0.224 OA
ATOM     27  O   UNL     1      44.835  28.287   9.028  1.00  0.00    -0.224 OA
ATOM     28  C   UNL     1      42.777  26.836   9.748  1.00  0.00    +0.163 C 
ENDBRANCH  24  25
ENDBRANCH   3  19
TORSDOF 6
ENDMDL
MODEL 5
REMARK VINA RESULT:    -7.931      4.965      9.554
REMARK INTER + INTRA:         -11.237
REMARK INTER:                 -10.354
REMARK INTRA:                  -0.883
REMARK UNBOUND:                -0.757
REMARK SMILES C[C@H](c1nc(-c2ccc(S(C)(=O)=O)cc2)no1)[C@H](N)C(=O)N1CCCC1
REMARK SMILES IDX 3 1 4 2 5 3 16 4 17 5 2 6 1 7 18 8 19 9 20 12 21 13 22 14
REMARK SMILES IDX 23 15 26 16 24 17 25 18 6 19 7 20 15 21 8 22 14 23 9 24
REMARK SMILES IDX 10 25 12 26 13 27 11 28
REMARK H PARENT 19 10 19 11
ROOT
ATOM      1  C   UNL     1      43.050  34.214  14.945  1.00  0.00    +0.231 A 
ATOM      2  N   UNL     1      43.594  33.231  14.267  1.00  0.00    -0.191 NA
ATOM      3  C   UNL     1      42.617  32.922  13.345  1.00  0.00    +0.202 A 
ATOM      4  N   UNL     1      41.526  33.702  13.428  1.00  0.00    -0.057 NA
ATOM      5  O   UNL     1      41.815  34.565  14.481  1.00  0.00    -0.339 OA
ENDROOT
BRANCH   1   6
ATOM      6  C   UNL     1      43.617  35.009  16.080  1.00  0.00    +0.102 C 
ATOM      7  C   UNL     1      44.309  34.044  17.051  1.00  0.00    +0.020 C 
BRANCH   6   8
ATOM      8  C   UNL     1      44.570  36.128  15.571  1.00  0.00    +0.153 C 
BRANCH   8   9
ATOM      9  N   UNL     1      44.506  36.335  14.101  1.00  0.00    -0.319 NA
ATOM     10  H   UNL     1      43.622  36.797  13.875  1.00  0.00    +0.119 HD
ATOM     11  H   UNL     1      45.247  36.961  13.795  1.00  0.00    +0.119 HD
ENDBRANCH   8   9
BRANCH   8  12
ATOM     12  C   UNL     1      46.043  35.786  15.928  1.00  0.00    +0.240 C 
ATOM     13  O   UNL     1      46.704  35.009  15.235  1.00  0.00    -0.273 OA
ATOM     14  N   UNL     1      46.597  36.423  17.019  1.00  0.00    -0.341 N 
ATOM     15  C   UNL     1      45.971  37.424  17.867  1.00  0.00    +0.119 C 
ATOM     16  C   UNL     1      47.987  36.215  17.385  1.00  0.00    +0.119 C 
ATOM     17  C   UNL     1      46.958  37.619  19.010  1.00  0.00    +0.023 C 
ATOM     18  C   UNL     1      48.303  37.352  18.347  1.00  0.00    +0.023 C 
ENDBRANCH   8  12
ENDBRANCH   6   8
ENDBRANCH   1   6
BRANCH   3  19
ATOM     19  C   UNL     1      42.778  31.844  12.374  1.00  0.00    +0.023 A 
ATOM     20  C   UNL     1      43.840  30.929  12.473  1.00  0.00    +0.013 A 
ATOM     21  C   UNL     1      41.860  31.704  11.318  1.00  0.00    +0.013 A 
ATOM     22  C   UNL     1      43.987  29.901  11.536  1.00  0.00    +0.021 A 
ATOM     23  C   UNL     1      42.000  30.679  10.379  1.00  0.00    +0.021 A 
ATOM     24  C   UNL     1      43.073  29.791  10.487  1.00  0.00    +0.067 A 
BRANCH  24  25
ATOM     25  S   UNL     1      43.249  28.481   9.299  1.00  0.00    +0.175 S 
ATOM     26  O   UNL     1      42.471  28.844   8.129  1.00  0.00    -0.224 OA
ATOM     27  O   UNL     1      44.663  28.178   9.188  1.00  0.00    -0.224 OA
ATOM     28  C   UNL     1      42.448  27.108  10.087  1.00  0.00    +0.163 C 
ENDBRANCH  24  25
ENDBRANCH   3  19
TORSDOF 6
ENDMDL
MODEL 6
REMARK VINA RESULT:    -7.626      1.822      2.379
REMARK INTER + INTRA:         -10.834
REMARK INTER:                 -10.182
REMARK INTRA:                  -0.652
REMARK UNBOUND:                -0.757
REMARK SMILES C[C@H](c1nc(-c2ccc(S(C)(=O)=O)cc2)no1)[C@H](N)C(=O)N1CCCC1
REMARK SMILES IDX 3 1 4 2 5 3 16 4 17 5 2 6 1 7 18 8 19 9 20 12 21 13 22 14
REMARK SMILES IDX 23 15 26 16 24 17 25 18 6 19 7 20 15 21 8 22 14 23 9 24
REMARK SMILES IDX 10 25 12 26 13 27 11 28
REMARK H PARENT 19 10 19 11
ROOT
ATOM      1  C   UNL     1      44.982  33.657  15.382  1.00  0.00    +0.231 A 
ATOM      2  N   UNL     1      45.729  34.001  16.405  1.00  0.00    -0.191 NA
ATOM      3  C   UNL     1      46.144  35.270  16.065  1.00  0.00    +0.202 A 
ATOM      4  N   UNL     1      45.649  35.707  14.894  1.00  0.00    -0.057 NA
ATOM      5  O   UNL     1      44.872  34.643  14.445  1.00  0.00    -0.339 OA
ENDROOT
BRANCH   1   6
ATOM      6  C   UNL     1      44.217  32.391  15.152  1.00  0.00    +0.102 C 
ATOM      7  C   UNL     1      44.806  31.296  16.049  1.00  0.00    +0.020 C 
BRANCH   6   8
ATOM      8  C   UNL     1      42.693  32.597  15.385  1.00  0.00    +0.153 C 
BRANCH   8   9
ATOM      9  N   UNL     1      41.973  31.343  15.725  1.00  0.00    -0.319 NA
ATOM     10  H   UNL     1      40.984  31.561  15.862  1.00  0.00    +0.119 HD
ATOM     11  H   UNL     1      42.020  30.682  14.952  1.00  0.00    +0.119 HD
ENDBRANCH   8   9
BRANCH   8  12
ATOM     12  C   UNL     1      42.026  33.185  14.111  1.00  0.00    +0.240 C 
ATOM     13  O   UNL     1      42.006  32.554  13.052  1.00  0.00    -0.273 OA
ATOM     14  N   UNL     1      41.414  34.416  14.225  1.00  0.00    -0.341 N 
ATOM     15  C   UNL     1      41.279  35.226  15.425  1.00  0.00    +0.119 C 
ATOM     16  C   UNL     1      40.707  35.011  13.105  1.00  0.00    +0.119 C 
ATOM     17  C   UNL     1      40.706  36.546  14.925  1.00  0.00    +0.023 C 
ATOM     18  C   UNL     1      39.870  36.120  13.726  1.00  0.00    +0.023 C 
ENDBRANCH   8  12
ENDBRANCH   6   8
ENDBRANCH   1   6
BRANCH   3  19
ATOM     19  C   UNL     1      47.036  36.051  16.918  1.00  0.00    +0.023 A 
ATOM     20  C   UNL     1      48.428  35.868  16.873  1.00  0.00    +0.013 A 
ATOM     21  C   UNL     1      46.507  37.009  17.800  1.00  0.00    +0.013 A 
ATOM     22  C   UNL     1      49.274  36.619  17.695  1.00  0.00    +0.021 A 
ATOM     23  C   UNL     1      47.346  37.764  18.624  1.00  0.00    +0.021 A 
ATOM     24  C   UNL     1      48.726  37.554  18.575  1.00  0.00    +0.067 A 
BRANCH  24  25
ATOM     25  S   UNL     1      49.796  38.519  19.615  1.00  0.00    +0.175 S 
ATOM     26  O   UNL     1      49.867  37.857  20.904  1.00  0.00    -0.224 OA
ATOM     27  O   UNL     1      51.000  38.805  18.858  1.00  0.00    -0.224 OA
ATOM     28  C   UNL     1      48.899  40.035  19.823  1.00  0.00    +0.163 C 
ENDBRANCH  24  25
ENDBRANCH   3  19
TORSDOF 6
ENDMDL
MODEL 7
REMARK VINA RESULT:    -7.609      4.897      9.310
REMARK INTER + INTRA:         -10.812
REMARK INTER:                 -10.042
REMARK INTRA:                  -0.771
REMARK UNBOUND:                -0.757
REMARK SMILES C[C@H](c1nc(-c2ccc(S(C)(=O)=O)cc2)no1)[C@H](N)C(=O)N1CCCC1
REMARK SMILES IDX 3 1 4 2 5 3 16 4 17 5 2 6 1 7 18 8 19 9 20 12 21 13 22 14
REMARK SMILES IDX 23 15 26 16 24 17 25 18 6 19 7 20 15 21 8 22 14 23 9 24
REMARK SMILES IDX 10 25 12 26 13 27 11 28
REMARK H PARENT 19 10 19 11
ROOT
ATOM      1  C   UNL     1      42.830  34.463  15.215  1.00  0.00    +0.231 A 
ATOM      2  N   UNL     1      43.386  33.854  14.194  1.00  0.00    -0.191 NA
ATOM      3  C   UNL     1      42.520  32.809  13.955  1.00  0.00    +0.202 A 
ATOM      4  N   UNL     1      41.454  32.791  14.774  1.00  0.00    -0.057 NA
ATOM      5  O   UNL     1      41.653  33.891  15.603  1.00  0.00    -0.339 OA
ENDROOT
BRANCH   1   6
ATOM      6  C   UNL     1      43.276  35.695  15.940  1.00  0.00    +0.102 C 
ATOM      7  C   UNL     1      42.032  36.473  16.386  1.00  0.00    +0.020 C 
BRANCH   6   8
ATOM      8  C   UNL     1      44.219  35.347  17.126  1.00  0.00    +0.153 C 
BRANCH   8   9
ATOM      9  N   UNL     1      43.673  35.744  18.450  1.00  0.00    -0.319 NA
ATOM     10  H   UNL     1      44.267  35.345  19.181  1.00  0.00    +0.119 HD
ATOM     11  H   UNL     1      43.711  36.753  18.565  1.00  0.00    +0.119 HD
ENDBRANCH   8   9
BRANCH   8  12
ATOM     12  C   UNL     1      45.588  36.060  16.955  1.00  0.00    +0.240 C 
ATOM     13  O   UNL     1      45.743  37.235  17.298  1.00  0.00    -0.273 OA
ATOM     14  N   UNL     1      46.635  35.316  16.453  1.00  0.00    -0.341 N 
ATOM     15  C   UNL     1      46.622  33.906  16.097  1.00  0.00    +0.119 C 
ATOM     16  C   UNL     1      47.966  35.881  16.324  1.00  0.00    +0.119 C 
ATOM     17  C   UNL     1      47.969  33.678  15.421  1.00  0.00    +0.023 C 
ATOM     18  C   UNL     1      48.876  34.677  16.127  1.00  0.00    +0.023 C 
ENDBRANCH   8  12
ENDBRANCH   6   8
ENDBRANCH   1   6
BRANCH   3  19
ATOM     19  C   UNL     1      42.756  31.828  12.900  1.00  0.00    +0.023 A 
ATOM     20  C   UNL     1      43.822  30.917  12.982  1.00  0.00    +0.013 A 
ATOM     21  C   UNL     1      41.909  31.781  11.779  1.00  0.00    +0.013 A 
ATOM     22  C   UNL     1      44.042  29.982  11.965  1.00  0.00    +0.021 A 
ATOM     23  C   UNL     1      42.122  30.849  10.760  1.00  0.00    +0.021 A 
ATOM     24  C   UNL     1      43.197  29.963  10.854  1.00  0.00    +0.067 A 
BRANCH  24  25
ATOM     25  S   UNL     1      43.465  28.772   9.563  1.00  0.00    +0.175 S 
ATOM     26  O   UNL     1      44.715  29.109   8.907  1.00  0.00    -0.224 OA
ATOM     27  O   UNL     1      43.257  27.454  10.134  1.00  0.00    -0.224 OA
ATOM     28  C   UNL     1      42.142  29.099   8.428  1.00  0.00    +0.163 C 
ENDBRANCH  24  25
ENDBRANCH   3  19
TORSDOF 6
ENDMDL
MODEL 8
REMARK VINA RESULT:    -7.312      7.982     11.201
REMARK INTER + INTRA:         -10.419
REMARK INTER:                  -9.585
REMARK INTRA:                  -0.834
REMARK UNBOUND:                -0.757
REMARK SMILES C[C@H](c1nc(-c2ccc(S(C)(=O)=O)cc2)no1)[C@H](N)C(=O)N1CCCC1
REMARK SMILES IDX 3 1 4 2 5 3 16 4 17 5 2 6 1 7 18 8 19 9 20 12 21 13 22 14
REMARK SMILES IDX 23 15 26 16 24 17 25 18 6 19 7 20 15 21 8 22 14 23 9 24
REMARK SMILES IDX 10 25 12 26 13 27 11 28
REMARK H PARENT 19 10 19 11
ROOT
ATOM      1  C   UNL     1      46.252  27.818   9.439  1.00  0.00    +0.231 A 
ATOM      2  N   UNL     1      46.058  28.789  10.301  1.00  0.00    -0.191 NA
ATOM      3  C   UNL     1      44.688  28.933  10.293  1.00  0.00    +0.202 A 
ATOM      4  N   UNL     1      44.057  28.066   9.482  1.00  0.00    -0.057 NA
ATOM      5  O   UNL     1      45.091  27.321   8.923  1.00  0.00    -0.339 OA
ENDROOT
BRANCH   1   6
ATOM      6  C   UNL     1      47.534  27.173   9.013  1.00  0.00    +0.102 C 
ATOM      7  C   UNL     1      47.210  26.074   7.992  1.00  0.00    +0.020 C 
BRANCH   6   8
ATOM      8  C   UNL     1      48.543  28.220   8.462  1.00  0.00    +0.153 C 
BRANCH   8   9
ATOM      9  N   UNL     1      49.265  27.761   7.247  1.00  0.00    -0.319 NA
ATOM     10  H   UNL     1      48.890  26.852   6.968  1.00  0.00    +0.119 HD
ATOM     11  H   UNL     1      49.097  28.395   6.470  1.00  0.00    +0.119 HD
ENDBRANCH   8   9
BRANCH   8  12
ATOM     12  C   UNL     1      49.612  28.558   9.538  1.00  0.00    +0.240 C 
ATOM     13  O   UNL     1      50.435  27.717   9.906  1.00  0.00    -0.273 OA
ATOM     14  N   UNL     1      49.637  29.848  10.026  1.00  0.00    -0.341 N 
ATOM     15  C   UNL     1      48.795  30.961   9.618  1.00  0.00    +0.119 C 
ATOM     16  C   UNL     1      50.645  30.271  10.982  1.00  0.00    +0.119 C 
ATOM     17  C   UNL     1      49.121  32.064  10.616  1.00  0.00    +0.023 C 
ATOM     18  C   UNL     1      50.580  31.792  10.958  1.00  0.00    +0.023 C 
ENDBRANCH   8  12
ENDBRANCH   6   8
ENDBRANCH   1   6
BRANCH   3  19
ATOM     19  C   UNL     1      44.006  29.939  11.102  1.00  0.00    +0.023 A 
ATOM     20  C   UNL     1      42.728  30.406  10.754  1.00  0.00    +0.013 A 
ATOM     21  C   UNL     1      44.626  30.455  12.253  1.00  0.00    +0.013 A 
ATOM     22  C   UNL     1      42.084  31.372  11.534  1.00  0.00    +0.021 A 
ATOM     23  C   UNL     1      43.988  31.419  13.038  1.00  0.00    +0.021 A 
ATOM     24  C   UNL     1      42.724  31.882  12.664  1.00  0.00    +0.067 A 
BRANCH  24  25
ATOM     25  S   UNL     1      41.908  33.102  13.666  1.00  0.00    +0.175 S 
ATOM     26  O   UNL     1      41.390  34.124  12.776  1.00  0.00    -0.224 OA
ATOM     27  O   UNL     1      41.029  32.399  14.581  1.00  0.00    -0.224 OA
ATOM     28  C   UNL     1      43.235  33.810  14.605  1.00  0.00    +0.163 C 
ENDBRANCH  24  25
ENDBRANCH   3  19
TORSDOF 6
ENDMDL
MODEL 9
REMARK VINA RESULT:    -7.161      3.136      4.732
REMARK INTER + INTRA:         -10.221
REMARK INTER:                  -9.312
REMARK INTRA:                  -0.909
REMARK UNBOUND:                -0.757
REMARK SMILES C[C@H](c1nc(-c2ccc(S(C)(=O)=O)cc2)no1)[C@H](N)C(=O)N1CCCC1
REMARK SMILES IDX 3 1 4 2 5 3 16 4 17 5 2 6 1 7 18 8 19 9 20 12 21 13 22 14
REMARK SMILES IDX 23 15 26 16 24 17 25 18 6 19 7 20 15 21 8 22 14 23 9 24
REMARK SMILES IDX 10 25 12 26 13 27 11 28
REMARK H PARENT 19 10 19 11
ROOT
ATOM      1  C   UNL     1      43.111  33.263  13.875  1.00  0.00    +0.231 A 
ATOM      2  N   UNL     1      43.966  33.471  14.848  1.00  0.00    -0.191 NA
ATOM      3  C   UNL     1      44.029  34.847  14.908  1.00  0.00    +0.202 A 
ATOM      4  N   UNL     1      43.221  35.464  14.028  1.00  0.00    -0.057 NA
ATOM      5  O   UNL     1      42.606  34.417  13.349  1.00  0.00    -0.339 OA
ENDROOT
BRANCH   1   6
ATOM      6  C   UNL     1      42.594  31.967  13.330  1.00  0.00    +0.102 C 
ATOM      7  C   UNL     1      43.785  31.031  13.090  1.00  0.00    +0.020 C 
BRANCH   6   8
ATOM      8  C   UNL     1      41.524  31.341  14.270  1.00  0.00    +0.153 C 
BRANCH   8   9
ATOM      9  N   UNL     1      40.954  32.308  15.242  1.00  0.00    -0.319 NA
ATOM     10  H   UNL     1      40.247  32.873  14.765  1.00  0.00    +0.119 HD
ATOM     11  H   UNL     1      40.475  31.819  15.995  1.00  0.00    +0.119 HD
ENDBRANCH   8   9
BRANCH   8  12
ATOM     12  C   UNL     1      42.140  30.171  15.085  1.00  0.00    +0.240 C 
ATOM     13  O   UNL     1      42.885  30.384  16.044  1.00  0.00    -0.273 OA
ATOM     14  N   UNL     1      41.781  28.888  14.727  1.00  0.00    -0.341 N 
ATOM     15  C   UNL     1      40.847  28.493  13.685  1.00  0.00    +0.119 C 
ATOM     16  C   UNL     1      42.254  27.737  15.476  1.00  0.00    +0.119 C 
ATOM     17  C   UNL     1      40.994  26.978  13.604  1.00  0.00    +0.023 C 
ATOM     18  C   UNL     1      41.351  26.595  15.034  1.00  0.00    +0.023 C 
ENDBRANCH   8  12
ENDBRANCH   6   8
ENDBRANCH   1   6
BRANCH   3  19
ATOM     19  C   UNL     1      44.896  35.546  15.851  1.00  0.00    +0.023 A 
ATOM     20  C   UNL     1      46.210  35.109  16.090  1.00  0.00    +0.013 A 
ATOM     21  C   UNL     1      44.423  36.678  16.536  1.00  0.00    +0.013 A 
ATOM     22  C   UNL     1      47.032  35.784  16.998  1.00  0.00    +0.021 A 
ATOM     23  C   UNL     1      45.240  37.359  17.444  1.00  0.00    +0.021 A 
ATOM     24  C   UNL     1      46.537  36.897  17.678  1.00  0.00    +0.067 A 
BRANCH  24  25
ATOM     25  S   UNL     1      47.580  37.766  18.826  1.00  0.00    +0.175 S 
ATOM     26  O   UNL     1      47.455  39.184  18.545  1.00  0.00    -0.224 OA
ATOM     27  O   UNL     1      47.303  37.242  20.150  1.00  0.00    -0.224 OA
ATOM     28  C   UNL     1      49.213  37.254  18.357  1.00  0.00    +0.163 C 
ENDBRANCH  24  25
ENDBRANCH   3  19
TORSDOF 6
ENDMDL
