MODEL 1
REMARK VINA RESULT:    -7.868      0.000      0.000
REMARK INTER + INTRA:         -11.578
REMARK INTER:                 -10.627
REMARK INTRA:                  -0.950
REMARK UNBOUND:                -0.950
REMARK SMILES COc1cc(OC)cc(-c2nc(N)c(CN)c(-c3ccc(Cl)cc3Cl)n2)c1
REMARK SMILES IDX 10 1 11 2 12 3 14 4 17 5 26 6 9 7 3 8 4 9 27 10 5 11 8 12
REMARK SMILES IDX 2 13 1 14 6 15 7 16 13 17 18 20 19 21 24 22 20 23 23 24
REMARK SMILES IDX 21 25 25 26 22 27 15 28 16 29
REMARK H PARENT 13 18 13 19 16 30 16 31
ROOT
ATOM      1  C   UNL     1      40.847  50.790  36.904  1.00  0.00    +0.162 A 
ATOM      2  N   UNL     1      40.204  51.314  35.851  1.00  0.00    -0.211 NA
ATOM      3  C   UNL     1      38.865  51.304  35.860  1.00  0.00    +0.132 A 
ATOM      4  C   UNL     1      38.123  50.785  36.912  1.00  0.00    +0.034 A 
ATOM      5  C   UNL     1      38.879  50.255  37.957  1.00  0.00    +0.082 A 
ATOM      6  N   UNL     1      40.229  50.267  37.971  1.00  0.00    -0.227 NA
ENDROOT
BRANCH   1   7
ATOM      7  C   UNL     1      42.323  50.796  36.894  1.00  0.00    +0.027 A 
ATOM      8  C   UNL     1      44.445  51.213  35.745  1.00  0.00    +0.123 A 
ATOM      9  C   UNL     1      45.147  50.802  36.882  1.00  0.00    +0.092 A 
ATOM     10  C   UNL     1      43.048  51.207  35.757  1.00  0.00    +0.058 A 
ATOM     11  C   UNL     1      44.463  50.392  38.024  1.00  0.00    +0.123 A 
ATOM     12  C   UNL     1      43.065  50.393  38.021  1.00  0.00    +0.058 A 
BRANCH   8  13
ATOM     13  O   UNL     1      45.236  51.593  34.695  1.00  0.00    -0.497 OA
ATOM     14  C   UNL     1      44.616  52.348  33.661  1.00  0.00    +0.278 C 
ENDBRANCH   8  13
BRANCH  11  15
ATOM     15  O   UNL     1      45.033  49.971  39.194  1.00  0.00    -0.497 OA
ATOM     16  C   UNL     1      44.334  48.972  39.925  1.00  0.00    +0.278 C 
ENDBRANCH  11  15
ENDBRANCH   1   7
BRANCH   3  17
ATOM     17  N   UNL     1      38.267  51.869  34.730  1.00  0.00    -0.383 N 
ATOM     18  H   UNL     1      37.271  51.678  34.710  1.00  0.00    +0.158 HD
ATOM     19  H   UNL     1      38.695  51.516  33.881  1.00  0.00    +0.158 HD
ENDBRANCH   3  17
BRANCH   5  20
ATOM     20  C   UNL     1      38.297  49.657  39.166  1.00  0.00    +0.019 A 
ATOM     21  C   UNL     1      38.458  50.308  40.405  1.00  0.00    +0.013 A 
ATOM     22  C   UNL     1      37.604  48.431  39.145  1.00  0.00    +0.051 A 
ATOM     23  C   UNL     1      37.923  49.767  41.577  1.00  0.00    +0.021 A 
ATOM     24  C   UNL     1      37.067  47.889  40.317  1.00  0.00    +0.041 A 
ATOM     25  C   UNL     1      37.227  48.563  41.525  1.00  0.00    +0.042 A 
ATOM     26 Cl   UNL     1      37.386  47.530  37.681  1.00  0.00    -0.084 Cl
ATOM     27 Cl   UNL     1      36.568  47.897  42.968  1.00  0.00    -0.084 Cl
ENDBRANCH   5  20
BRANCH   4  28
ATOM     28  C   UNL     1      36.621  50.799  36.938  1.00  0.00    +0.119 C 
BRANCH  28  29
ATOM     29  N   UNL     1      36.069  52.147  36.952  1.00  0.00    -0.326 NA
ATOM     30  H   UNL     1      36.801  52.833  36.773  1.00  0.00    +0.119 HD
ATOM     31  H   UNL     1      35.689  52.358  37.872  1.00  0.00    +0.119 HD
ENDBRANCH  28  29
ENDBRANCH   4  28
TORSDOF 7
ENDMDL
MODEL 2
REMARK VINA RESULT:    -7.752      4.033      6.533
REMARK INTER + INTRA:         -11.422
REMARK INTER:                 -10.208
REMARK INTRA:                  -1.213
REMARK UNBOUND:                -0.950
REMARK SMILES COc1cc(OC)cc(-c2nc(N)c(CN)c(-c3ccc(Cl)cc3Cl)n2)c1
REMARK SMILES IDX 10 1 11 2 12 3 14 4 17 5 26 6 9 7 3 8 4 9 27 10 5 11 8 12
REMARK SMILES IDX 2 13 1 14 6 15 7 16 13 17 18 20 19 21 24 22 20 23 23 24
REMARK SMILES IDX 21 25 25 26 22 27 15 28 16 29
REMARK H PARENT 13 18 13 19 16 30 16 31
ROOT
ATOM      1  C   UNL     1      38.598  49.225  39.706  1.00  0.00    +0.162 A 
ATOM      2  N   UNL     1      39.904  49.518  39.776  1.00  0.00    -0.211 NA
ATOM      3  C   UNL     1      40.462  49.622  40.989  1.00  0.00    +0.132 A 
ATOM      4  C   UNL     1      39.750  49.429  42.166  1.00  0.00    +0.034 A 
ATOM      5  C   UNL     1      38.398  49.136  41.991  1.00  0.00    +0.082 A 
ATOM      6  N   UNL     1      37.820  49.017  40.776  1.00  0.00    -0.227 NA
ENDROOT
BRANCH   1   7
ATOM      7  C   UNL     1      37.978  49.115  38.370  1.00  0.00    +0.027 A 
ATOM      8  C   UNL     1      36.201  48.280  36.908  1.00  0.00    +0.123 A 
ATOM      9  C   UNL     1      36.801  48.906  35.812  1.00  0.00    +0.092 A 
ATOM     10  C   UNL     1      36.789  48.385  38.171  1.00  0.00    +0.058 A 
ATOM     11  C   UNL     1      37.975  49.637  35.973  1.00  0.00    +0.123 A 
ATOM     12  C   UNL     1      38.551  49.736  37.244  1.00  0.00    +0.058 A 
BRANCH   8  13
ATOM     13  O   UNL     1      35.051  47.597  36.614  1.00  0.00    -0.497 OA
ATOM     14  C   UNL     1      34.867  47.199  35.261  1.00  0.00    +0.278 C 
ENDBRANCH   8  13
BRANCH  11  15
ATOM     15  O   UNL     1      38.655  50.295  34.984  1.00  0.00    -0.497 OA
ATOM     16  C   UNL     1      39.581  51.292  35.395  1.00  0.00    +0.278 C 
ENDBRANCH  11  15
ENDBRANCH   1   7
BRANCH   3  17
ATOM     17  N   UNL     1      41.826  49.927  40.982  1.00  0.00    -0.383 N 
ATOM     18  H   UNL     1      42.299  49.470  40.211  1.00  0.00    +0.158 HD
ATOM     19  H   UNL     1      42.261  49.650  41.856  1.00  0.00    +0.158 HD
ENDBRANCH   3  17
BRANCH   5  20
ATOM     20  C   UNL     1      37.463  48.896  43.098  1.00  0.00    +0.019 A 
ATOM     21  C   UNL     1      37.186  47.573  43.493  1.00  0.00    +0.013 A 
ATOM     22  C   UNL     1      36.802  49.942  43.770  1.00  0.00    +0.051 A 
ATOM     23  C   UNL     1      36.299  47.305  44.539  1.00  0.00    +0.021 A 
ATOM     24  C   UNL     1      35.916  49.675  44.818  1.00  0.00    +0.041 A 
ATOM     25  C   UNL     1      35.672  48.358  45.198  1.00  0.00    +0.042 A 
ATOM     26 Cl   UNL     1      37.042  51.602  43.336  1.00  0.00    -0.084 Cl
ATOM     27 Cl   UNL     1      34.581  48.028  46.487  1.00  0.00    -0.084 Cl
ENDBRANCH   5  20
BRANCH   4  28
ATOM     28  C   UNL     1      40.381  49.514  43.526  1.00  0.00    +0.119 C 
BRANCH  28  29
ATOM     29  N   UNL     1      40.786  50.869  43.877  1.00  0.00    -0.326 NA
ATOM     30  H   UNL     1      39.976  51.487  43.904  1.00  0.00    +0.119 HD
ATOM     31  H   UNL     1      41.413  51.240  43.166  1.00  0.00    +0.119 HD
ENDBRANCH  28  29
ENDBRANCH   4  28
TORSDOF 7
ENDMDL
MODEL 3
REMARK VINA RESULT:    -7.215      3.789      7.378
REMARK INTER + INTRA:         -10.695
REMARK INTER:                  -9.545
REMARK INTRA:                  -1.151
REMARK UNBOUND:                -0.950
REMARK SMILES COc1cc(OC)cc(-c2nc(N)c(CN)c(-c3ccc(Cl)cc3Cl)n2)c1
REMARK SMILES IDX 10 1 11 2 12 3 14 4 17 5 26 6 9 7 3 8 4 9 27 10 5 11 8 12
REMARK SMILES IDX 2 13 1 14 6 15 7 16 13 17 18 20 19 21 24 22 20 23 23 24
REMARK SMILES IDX 21 25 25 26 22 27 15 28 16 29
REMARK H PARENT 13 18 13 19 16 30 16 31
ROOT
ATOM      1  C   UNL     1      37.524  50.663  39.521  1.00  0.00    +0.162 A 
ATOM      2  N   UNL     1      36.483  50.783  38.685  1.00  0.00    -0.211 NA
ATOM      3  C   UNL     1      36.735  51.069  37.402  1.00  0.00    +0.132 A 
ATOM      4  C   UNL     1      38.021  51.233  36.904  1.00  0.00    +0.034 A 
ATOM      5  C   UNL     1      39.036  51.097  37.850  1.00  0.00    +0.082 A 
ATOM      6  N   UNL     1      38.803  50.799  39.146  1.00  0.00    -0.227 NA
ENDROOT
BRANCH   1   7
ATOM      7  C   UNL     1      37.250  50.353  40.938  1.00  0.00    +0.027 A 
ATOM      8  C   UNL     1      36.998  48.731  42.755  1.00  0.00    +0.123 A 
ATOM      9  C   UNL     1      36.720  49.768  43.649  1.00  0.00    +0.092 A 
ATOM     10  C   UNL     1      37.257  49.026  41.414  1.00  0.00    +0.058 A 
ATOM     11  C   UNL     1      36.706  51.091  43.214  1.00  0.00    +0.123 A 
ATOM     12  C   UNL     1      36.970  51.371  41.870  1.00  0.00    +0.058 A 
BRANCH   8  13
ATOM     13  O   UNL     1      36.983  47.480  43.312  1.00  0.00    -0.497 OA
ATOM     14  C   UNL     1      36.111  47.278  44.417  1.00  0.00    +0.278 C 
ENDBRANCH   8  13
BRANCH  11  15
ATOM     15  O   UNL     1      36.450  52.190  43.989  1.00  0.00    -0.497 OA
ATOM     16  C   UNL     1      37.415  52.514  44.981  1.00  0.00    +0.278 C 
ENDBRANCH  11  15
ENDBRANCH   1   7
BRANCH   3  17
ATOM     17  N   UNL     1      35.601  51.176  36.591  1.00  0.00    -0.383 N 
ATOM     18  H   UNL     1      35.846  51.493  35.660  1.00  0.00    +0.158 HD
ATOM     19  H   UNL     1      34.926  51.815  36.999  1.00  0.00    +0.158 HD
ENDBRANCH   3  17
BRANCH   5  20
ATOM     20  C   UNL     1      40.466  51.232  37.540  1.00  0.00    +0.019 A 
ATOM     21  C   UNL     1      41.098  52.477  37.723  1.00  0.00    +0.013 A 
ATOM     22  C   UNL     1      41.234  50.165  37.033  1.00  0.00    +0.051 A 
ATOM     23  C   UNL     1      42.455  52.644  37.435  1.00  0.00    +0.021 A 
ATOM     24  C   UNL     1      42.592  50.331  36.746  1.00  0.00    +0.041 A 
ATOM     25  C   UNL     1      43.195  51.569  36.951  1.00  0.00    +0.042 A 
ATOM     26 Cl   UNL     1      40.543  48.604  36.734  1.00  0.00    -0.084 Cl
ATOM     27 Cl   UNL     1      44.866  51.776  36.598  1.00  0.00    -0.084 Cl
ENDBRANCH   5  20
BRANCH   4  28
ATOM     28  C   UNL     1      38.307  51.523  35.459  1.00  0.00    +0.119 C 
BRANCH  28  29
ATOM     29  N   UNL     1      37.990  50.402  34.584  1.00  0.00    -0.326 NA
ATOM     30  H   UNL     1      38.638  50.369  33.799  1.00  0.00    +0.119 HD
ATOM     31  H   UNL     1      37.059  50.521  34.190  1.00  0.00    +0.119 HD
ENDBRANCH  28  29
ENDBRANCH   4  28
TORSDOF 7
ENDMDL
MODEL 4
REMARK VINA RESULT:    -6.849      4.344      7.674
REMARK INTER + INTRA:         -10.201
REMARK INTER:                  -9.182
REMARK INTRA:                  -1.019
REMARK UNBOUND:                -0.950
REMARK SMILES COc1cc(OC)cc(-c2nc(N)c(CN)c(-c3ccc(Cl)cc3Cl)n2)c1
REMARK SMILES IDX 10 1 11 2 12 3 14 4 17 5 26 6 9 7 3 8 4 9 27 10 5 11 8 12
REMARK SMILES IDX 2 13 1 14 6 15 7 16 13 17 18 20 19 21 24 22 20 23 23 24
REMARK SMILES IDX 21 25 25 26 22 27 15 28 16 29
REMARK H PARENT 13 18 13 19 16 30 16 31
ROOT
ATOM      1  C   UNL     1      37.113  51.688  39.602  1.00  0.00    +0.162 A 
ATOM      2  N   UNL     1      36.132  51.550  38.700  1.00  0.00    -0.211 NA
ATOM      3  C   UNL     1      36.469  51.215  37.448  1.00  0.00    +0.132 A 
ATOM      4  C   UNL     1      37.782  50.997  37.053  1.00  0.00    +0.034 A 
ATOM      5  C   UNL     1      38.732  51.172  38.059  1.00  0.00    +0.082 A 
ATOM      6  N   UNL     1      38.412  51.499  39.329  1.00  0.00    -0.227 NA
ENDROOT
BRANCH   1   7
ATOM      7  C   UNL     1      36.745  52.062  40.982  1.00  0.00    +0.027 A 
ATOM      8  C   UNL     1      35.866  51.467  43.188  1.00  0.00    +0.123 A 
ATOM      9  C   UNL     1      36.040  52.786  43.619  1.00  0.00    +0.092 A 
ATOM     10  C   UNL     1      36.215  51.116  41.882  1.00  0.00    +0.058 A 
ATOM     11  C   UNL     1      36.563  53.746  42.757  1.00  0.00    +0.123 A 
ATOM     12  C   UNL     1      36.910  53.379  41.453  1.00  0.00    +0.058 A 
BRANCH   8  13
ATOM     13  O   UNL     1      35.347  50.625  44.134  1.00  0.00    -0.497 OA
ATOM     14  C   UNL     1      35.773  49.269  44.093  1.00  0.00    +0.278 C 
ENDBRANCH   8  13
BRANCH  11  15
ATOM     15  O   UNL     1      36.782  55.063  43.058  1.00  0.00    -0.497 OA
ATOM     16  C   UNL     1      35.841  56.002  42.553  1.00  0.00    +0.278 C 
ENDBRANCH  11  15
ENDBRANCH   1   7
BRANCH   3  17
ATOM     17  N   UNL     1      35.392  51.087  36.565  1.00  0.00    -0.383 N 
ATOM     18  H   UNL     1      35.083  51.994  36.233  1.00  0.00    +0.158 HD
ATOM     19  H   UNL     1      34.616  50.608  37.011  1.00  0.00    +0.158 HD
ENDBRANCH   3  17
BRANCH   5  20
ATOM     20  C   UNL     1      40.177  50.992  37.860  1.00  0.00    +0.019 A 
ATOM     21  C   UNL     1      40.806  49.841  38.372  1.00  0.00    +0.013 A 
ATOM     22  C   UNL     1      40.973  51.946  37.198  1.00  0.00    +0.051 A 
ATOM     23  C   UNL     1      42.179  49.637  38.206  1.00  0.00    +0.021 A 
ATOM     24  C   UNL     1      42.347  51.743  37.030  1.00  0.00    +0.041 A 
ATOM     25  C   UNL     1      42.940  50.588  37.533  1.00  0.00    +0.042 A 
ATOM     26 Cl   UNL     1      40.305  53.415  36.566  1.00  0.00    -0.084 Cl
ATOM     27 Cl   UNL     1      44.630  50.337  37.328  1.00  0.00    -0.084 Cl
ENDBRANCH   5  20
BRANCH   4  28
ATOM     28  C   UNL     1      38.160  50.591  35.658  1.00  0.00    +0.119 C 
BRANCH  28  29
ATOM     29  N   UNL     1      37.407  49.439  35.181  1.00  0.00    -0.326 NA
ATOM     30  H   UNL     1      37.982  48.869  34.563  1.00  0.00    +0.119 HD
ATOM     31  H   UNL     1      36.607  49.749  34.632  1.00  0.00    +0.119 HD
ENDBRANCH  28  29
ENDBRANCH   4  28
TORSDOF 7
ENDMDL
MODEL 5
REMARK VINA RESULT:    -6.186      5.549      8.260
REMARK INTER + INTRA:          -9.306
REMARK INTER:                  -8.143
REMARK INTRA:                  -1.163
REMARK UNBOUND:                -0.950
REMARK SMILES COc1cc(OC)cc(-c2nc(N)c(CN)c(-c3ccc(Cl)cc3Cl)n2)c1
REMARK SMILES IDX 10 1 11 2 12 3 14 4 17 5 26 6 9 7 3 8 4 9 27 10 5 11 8 12
REMARK SMILES IDX 2 13 1 14 6 15 7 16 13 17 18 20 19 21 24 22 20 23 23 24
REMARK SMILES IDX 21 25 25 26 22 27 15 28 16 29
REMARK H PARENT 13 18 13 19 16 30 16 31
ROOT
ATOM      1  C   UNL     1      36.647  52.699  41.487  1.00  0.00    +0.162 A 
ATOM      2  N   UNL     1      36.165  51.658  42.180  1.00  0.00    -0.211 NA
ATOM      3  C   UNL     1      36.475  50.424  41.763  1.00  0.00    +0.132 A 
ATOM      4  C   UNL     1      37.279  50.182  40.657  1.00  0.00    +0.034 A 
ATOM      5  C   UNL     1      37.726  51.326  39.997  1.00  0.00    +0.082 A 
ATOM      6  N   UNL     1      37.433  52.578  40.409  1.00  0.00    -0.227 NA
ENDROOT
BRANCH   1   7
ATOM      7  C   UNL     1      36.303  54.060  41.941  1.00  0.00    +0.027 A 
ATOM      8  C   UNL     1      35.382  56.285  41.498  1.00  0.00    +0.123 A 
ATOM      9  C   UNL     1      35.649  56.664  42.816  1.00  0.00    +0.092 A 
ATOM     10  C   UNL     1      35.709  54.996  41.070  1.00  0.00    +0.058 A 
ATOM     11  C   UNL     1      36.232  55.764  43.705  1.00  0.00    +0.123 A 
ATOM     12  C   UNL     1      36.552  54.477  43.263  1.00  0.00    +0.058 A 
BRANCH   8  13
ATOM     13  O   UNL     1      34.805  57.262  40.731  1.00  0.00    -0.497 OA
ATOM     14  C   UNL     1      35.620  57.863  39.733  1.00  0.00    +0.278 C 
ENDBRANCH   8  13
BRANCH  11  15
ATOM     15  O   UNL     1      36.541  56.013  45.015  1.00  0.00    -0.497 OA
ATOM     16  C   UNL     1      35.521  56.599  45.814  1.00  0.00    +0.278 C 
ENDBRANCH  11  15
ENDBRANCH   1   7
BRANCH   3  17
ATOM     17  N   UNL     1      35.938  49.391  42.537  1.00  0.00    -0.383 N 
ATOM     18  H   UNL     1      35.000  49.618  42.850  1.00  0.00    +0.158 HD
ATOM     19  H   UNL     1      36.525  49.202  43.343  1.00  0.00    +0.158 HD
ENDBRANCH   3  17
BRANCH   5  20
ATOM     20  C   UNL     1      38.586  51.299  38.806  1.00  0.00    +0.019 A 
ATOM     21  C   UNL     1      39.986  51.324  38.964  1.00  0.00    +0.013 A 
ATOM     22  C   UNL     1      38.065  51.280  37.498  1.00  0.00    +0.051 A 
ATOM     23  C   UNL     1      40.835  51.304  37.855  1.00  0.00    +0.021 A 
ATOM     24  C   UNL     1      38.915  51.259  36.387  1.00  0.00    +0.041 A 
ATOM     25  C   UNL     1      40.295  51.268  36.573  1.00  0.00    +0.042 A 
ATOM     26 Cl   UNL     1      36.360  51.289  37.193  1.00  0.00    -0.084 Cl
ATOM     27 Cl   UNL     1      41.342  51.243  35.208  1.00  0.00    -0.084 Cl
ENDBRANCH   5  20
BRANCH   4  28
ATOM     28  C   UNL     1      37.654  48.799  40.206  1.00  0.00    +0.119 C 
BRANCH  28  29
ATOM     29  N   UNL     1      36.525  48.056  39.664  1.00  0.00    -0.326 NA
ATOM     30  H   UNL     1      36.264  47.297  40.291  1.00  0.00    +0.119 HD
ATOM     31  H   UNL     1      36.783  47.628  38.777  1.00  0.00    +0.119 HD
ENDBRANCH  28  29
ENDBRANCH   4  28
TORSDOF 7
ENDMDL
MODEL 6
REMARK VINA RESULT:    -6.179      5.988      8.538
REMARK INTER + INTRA:          -9.296
REMARK INTER:                  -8.097
REMARK INTRA:                  -1.199
REMARK UNBOUND:                -0.950
REMARK SMILES COc1cc(OC)cc(-c2nc(N)c(CN)c(-c3ccc(Cl)cc3Cl)n2)c1
REMARK SMILES IDX 10 1 11 2 12 3 14 4 17 5 26 6 9 7 3 8 4 9 27 10 5 11 8 12
REMARK SMILES IDX 2 13 1 14 6 15 7 16 13 17 18 20 19 21 24 22 20 23 23 24
REMARK SMILES IDX 21 25 25 26 22 27 15 28 16 29
REMARK H PARENT 13 18 13 19 16 30 16 31
ROOT
ATOM      1  C   UNL     1      36.164  51.553  43.337  1.00  0.00    +0.162 A 
ATOM      2  N   UNL     1      35.508  52.599  42.816  1.00  0.00    -0.211 NA
ATOM      3  C   UNL     1      34.758  53.346  43.636  1.00  0.00    +0.132 A 
ATOM      4  C   UNL     1      34.643  53.089  44.996  1.00  0.00    +0.034 A 
ATOM      5  C   UNL     1      35.355  51.977  45.444  1.00  0.00    +0.082 A 
ATOM      6  N   UNL     1      36.125  51.218  44.634  1.00  0.00    -0.227 NA
ENDROOT
BRANCH   1   7
ATOM      7  C   UNL     1      36.986  50.725  42.435  1.00  0.00    +0.027 A 
ATOM      8  C   UNL     1      37.316  49.598  40.286  1.00  0.00    +0.123 A 
ATOM      9  C   UNL     1      38.564  49.137  40.713  1.00  0.00    +0.092 A 
ATOM     10  C   UNL     1      36.540  50.382  41.142  1.00  0.00    +0.058 A 
ATOM     11  C   UNL     1      39.038  49.458  41.983  1.00  0.00    +0.123 A 
ATOM     12  C   UNL     1      38.251  50.245  42.828  1.00  0.00    +0.058 A 
BRANCH   8  13
ATOM     13  O   UNL     1      36.972  49.213  39.018  1.00  0.00    -0.497 OA
ATOM     14  C   UNL     1      37.940  48.474  38.284  1.00  0.00    +0.278 C 
ENDBRANCH   8  13
BRANCH  11  15
ATOM     15  O   UNL     1      40.238  49.070  42.515  1.00  0.00    -0.497 OA
ATOM     16  C   UNL     1      40.433  49.311  43.902  1.00  0.00    +0.278 C 
ENDBRANCH  11  15
ENDBRANCH   1   7
BRANCH   3  17
ATOM     17  N   UNL     1      34.107  54.420  43.021  1.00  0.00    -0.383 N 
ATOM     18  H   UNL     1      34.711  54.874  42.345  1.00  0.00    +0.158 HD
ATOM     19  H   UNL     1      33.803  55.099  43.711  1.00  0.00    +0.158 HD
ENDBRANCH   3  17
BRANCH   5  20
ATOM     20  C   UNL     1      35.373  51.525  46.842  1.00  0.00    +0.019 A 
ATOM     21  C   UNL     1      34.494  50.503  47.249  1.00  0.00    +0.013 A 
ATOM     22  C   UNL     1      36.221  52.098  47.810  1.00  0.00    +0.051 A 
ATOM     23  C   UNL     1      34.480  50.051  48.571  1.00  0.00    +0.021 A 
ATOM     24  C   UNL     1      36.208  51.645  49.133  1.00  0.00    +0.041 A 
ATOM     25  C   UNL     1      35.339  50.622  49.504  1.00  0.00    +0.042 A 
ATOM     26 Cl   UNL     1      37.310  53.388  47.423  1.00  0.00    -0.084 Cl
ATOM     27 Cl   UNL     1      35.322  50.064  51.132  1.00  0.00    -0.084 Cl
ENDBRANCH   5  20
BRANCH   4  28
ATOM     28  C   UNL     1      33.828  53.944  45.924  1.00  0.00    +0.119 C 
BRANCH  28  29
ATOM     29  N   UNL     1      34.281  55.327  45.961  1.00  0.00    -0.326 NA
ATOM     30  H   UNL     1      33.585  55.941  45.538  1.00  0.00    +0.119 HD
ATOM     31  H   UNL     1      35.133  55.430  45.412  1.00  0.00    +0.119 HD
ENDBRANCH  28  29
ENDBRANCH   4  28
TORSDOF 7
ENDMDL
MODEL 7
REMARK VINA RESULT:    -6.123      5.598      8.428
REMARK INTER + INTRA:          -9.221
REMARK INTER:                  -8.105
REMARK INTRA:                  -1.116
REMARK UNBOUND:                -0.950
REMARK SMILES COc1cc(OC)cc(-c2nc(N)c(CN)c(-c3ccc(Cl)cc3Cl)n2)c1
REMARK SMILES IDX 10 1 11 2 12 3 14 4 17 5 26 6 9 7 3 8 4 9 27 10 5 11 8 12
REMARK SMILES IDX 2 13 1 14 6 15 7 16 13 17 18 20 19 21 24 22 20 23 23 24
REMARK SMILES IDX 21 25 25 26 22 27 15 28 16 29
REMARK H PARENT 13 18 13 19 16 30 16 31
ROOT
ATOM      1  C   UNL     1      36.561  53.092  41.572  1.00  0.00    +0.162 A 
ATOM      2  N   UNL     1      35.978  52.196  42.380  1.00  0.00    -0.211 NA
ATOM      3  C   UNL     1      36.120  50.897  42.089  1.00  0.00    +0.132 A 
ATOM      4  C   UNL     1      36.851  50.445  40.998  1.00  0.00    +0.034 A 
ATOM      5  C   UNL     1      37.414  51.450  40.213  1.00  0.00    +0.082 A 
ATOM      6  N   UNL     1      37.290  52.765  40.496  1.00  0.00    -0.227 NA
ENDROOT
BRANCH   1   7
ATOM      7  C   UNL     1      36.402  54.525  41.887  1.00  0.00    +0.027 A 
ATOM      8  C   UNL     1      36.920  56.471  43.281  1.00  0.00    +0.123 A 
ATOM      9  C   UNL     1      36.089  57.267  42.487  1.00  0.00    +0.092 A 
ATOM     10  C   UNL     1      37.070  55.115  42.980  1.00  0.00    +0.058 A 
ATOM     11  C   UNL     1      35.415  56.718  41.399  1.00  0.00    +0.123 A 
ATOM     12  C   UNL     1      35.576  55.359  41.109  1.00  0.00    +0.058 A 
BRANCH   8  13
ATOM     13  O   UNL     1      37.523  57.134  44.315  1.00  0.00    -0.497 OA
ATOM     14  C   UNL     1      38.757  56.607  44.786  1.00  0.00    +0.278 C 
ENDBRANCH   8  13
BRANCH  11  15
ATOM     15  O   UNL     1      34.578  57.389  40.550  1.00  0.00    -0.497 OA
ATOM     16  C   UNL     1      35.051  57.617  39.229  1.00  0.00    +0.278 C 
ENDBRANCH  11  15
ENDBRANCH   1   7
BRANCH   3  17
ATOM     17  N   UNL     1      35.486  50.024  42.978  1.00  0.00    -0.383 N 
ATOM     18  H   UNL     1      36.152  49.612  43.622  1.00  0.00    +0.158 HD
ATOM     19  H   UNL     1      35.004  49.286  42.475  1.00  0.00    +0.158 HD
ENDBRANCH   3  17
BRANCH   5  20
ATOM     20  C   UNL     1      38.224  51.195  39.014  1.00  0.00    +0.019 A 
ATOM     21  C   UNL     1      39.601  50.934  39.154  1.00  0.00    +0.013 A 
ATOM     22  C   UNL     1      37.683  51.231  37.714  1.00  0.00    +0.051 A 
ATOM     23  C   UNL     1      40.405  50.691  38.037  1.00  0.00    +0.021 A 
ATOM     24  C   UNL     1      38.486  50.986  36.596  1.00  0.00    +0.041 A 
ATOM     25  C   UNL     1      39.842  50.715  36.765  1.00  0.00    +0.042 A 
ATOM     26 Cl   UNL     1      36.011  51.583  37.430  1.00  0.00    -0.084 Cl
ATOM     27 Cl   UNL     1      40.831  50.415  35.390  1.00  0.00    -0.084 Cl
ENDBRANCH   5  20
BRANCH   4  28
ATOM     28  C   UNL     1      37.038  48.988  40.687  1.00  0.00    +0.119 C 
BRANCH  28  29
ATOM     29  N   UNL     1      37.633  48.246  41.791  1.00  0.00    -0.326 NA
ATOM     30  H   UNL     1      38.624  48.083  41.617  1.00  0.00    +0.119 HD
ATOM     31  H   UNL     1      37.196  47.330  41.871  1.00  0.00    +0.119 HD
ENDBRANCH  28  29
ENDBRANCH   4  28
TORSDOF 7
ENDMDL
