MODEL 1
REMARK VINA RESULT:    -7.854      0.000      0.000
REMARK INTER + INTRA:          -9.664
REMARK INTER:                  -9.002
REMARK INTRA:                  -0.662
REMARK UNBOUND:                -0.662
REMARK SMILES Cn1cnc2cc(C#N)c(-c3ccccc3Cl)c(CN)c21
REMARK SMILES IDX 1 1 2 2 3 3 4 4 5 5 6 6 7 7 8 8 9 9 10 10 18 11 21 12 19 13
REMARK SMILES IDX 20 14 11 17 12 18 16 19 13 20 15 21 14 22 17 23
REMARK H PARENT 20 15 20 16
ROOT
ATOM      1  C   UNL     1      45.099  36.122  17.956  1.00  0.00    +0.151 C 
ATOM      2  N   UNL     1      45.127  35.146  16.895  1.00  0.00    -0.333 N 
ATOM      3  C   UNL     1      46.197  34.326  16.665  1.00  0.00    +0.200 A 
ATOM      4  N   UNL     1      45.977  33.512  15.664  1.00  0.00    -0.237 NA
ATOM      5  C   UNL     1      44.714  33.815  15.231  1.00  0.00    +0.090 A 
ATOM      6  C   UNL     1      44.007  33.215  14.186  1.00  0.00    +0.050 A 
ATOM      7  C   UNL     1      42.716  33.662  13.895  1.00  0.00    +0.062 A 
ATOM      8  C   UNL     1      42.023  33.018  12.811  1.00  0.00    +0.100 C 
ATOM      9  N   UNL     1      41.484  32.498  11.923  1.00  0.00    -0.192 NA
ATOM     10  C   UNL     1      42.120  34.715  14.633  1.00  0.00    +0.008 A 
ATOM     11  C   UNL     1      42.841  35.359  15.697  1.00  0.00    +0.001 A 
ATOM     12  C   UNL     1      44.141  34.853  15.970  1.00  0.00    +0.073 A 
ENDROOT
BRANCH  11  13
ATOM     13  C   UNL     1      42.204  36.485  16.484  1.00  0.00    +0.116 C 
BRANCH  13  14
ATOM     14  N   UNL     1      41.573  35.995  17.698  1.00  0.00    -0.326 NA
ATOM     15  H   UNL     1      42.253  35.526  18.291  1.00  0.00    +0.119 HD
ATOM     16  H   UNL     1      41.183  36.771  18.228  1.00  0.00    +0.119 HD
ENDBRANCH  13  14
ENDBRANCH  11  13
BRANCH  10  17
ATOM     17  C   UNL     1      40.741  35.143  14.290  1.00  0.00    +0.002 A 
ATOM     18  C   UNL     1      40.551  36.088  13.264  1.00  0.00    +0.010 A 
ATOM     19  C   UNL     1      39.601  34.625  14.935  1.00  0.00    +0.048 A 
ATOM     20  C   UNL     1      39.270  36.512  12.903  1.00  0.00    +0.001 A 
ATOM     21  C   UNL     1      38.319  35.054  14.573  1.00  0.00    +0.021 A 
ATOM     22  C   UNL     1      38.156  35.998  13.560  1.00  0.00    +0.002 A 
ATOM     23 Cl   UNL     1      39.722  33.425  16.178  1.00  0.00    -0.084 Cl
ENDBRANCH  10  17
TORSDOF 3
ENDMDL
MODEL 2
REMARK VINA RESULT:    -7.376      3.672      5.751
REMARK INTER + INTRA:          -9.115
REMARK INTER:                  -8.553
REMARK INTRA:                  -0.562
REMARK UNBOUND:                -0.662
REMARK SMILES Cn1cnc2cc(C#N)c(-c3ccccc3Cl)c(CN)c21
REMARK SMILES IDX 1 1 2 2 3 3 4 4 5 5 6 6 7 7 8 8 9 9 10 10 18 11 21 12 19 13
REMARK SMILES IDX 20 14 11 17 12 18 16 19 13 20 15 21 14 22 17 23
REMARK H PARENT 20 15 20 16
ROOT
ATOM      1  C   UNL     1      48.848  39.019  20.186  1.00  0.00    +0.151 C 
ATOM      2  N   UNL     1      49.360  38.105  19.196  1.00  0.00    -0.333 N 
ATOM      3  C   UNL     1      50.695  37.866  19.023  1.00  0.00    +0.200 A 
ATOM      4  N   UNL     1      50.912  36.983  18.082  1.00  0.00    -0.237 NA
ATOM      5  C   UNL     1      49.667  36.634  17.630  1.00  0.00    +0.090 A 
ATOM      6  C   UNL     1      49.355  35.709  16.630  1.00  0.00    +0.050 A 
ATOM      7  C   UNL     1      48.013  35.483  16.310  1.00  0.00    +0.062 A 
ATOM      8  C   UNL     1      47.735  34.524  15.275  1.00  0.00    +0.100 C 
ATOM      9  N   UNL     1      47.528  33.759  14.426  1.00  0.00    -0.192 NA
ATOM     10  C   UNL     1      46.973  36.180  16.973  1.00  0.00    +0.008 A 
ATOM     11  C   UNL     1      47.277  37.152  17.988  1.00  0.00    +0.001 A 
ATOM     12  C   UNL     1      48.654  37.329  18.295  1.00  0.00    +0.073 A 
ENDROOT
BRANCH  11  13
ATOM     13  C   UNL     1      46.165  37.897  18.696  1.00  0.00    +0.116 C 
BRANCH  13  14
ATOM     14  N   UNL     1      45.958  39.215  18.122  1.00  0.00    -0.326 NA
ATOM     15  H   UNL     1      46.842  39.709  18.030  1.00  0.00    +0.119 HD
ATOM     16  H   UNL     1      45.552  39.134  17.193  1.00  0.00    +0.119 HD
ENDBRANCH  13  14
ENDBRANCH  11  13
BRANCH  10  17
ATOM     17  C   UNL     1      45.565  35.894  16.603  1.00  0.00    +0.002 A 
ATOM     18  C   UNL     1      45.027  36.481  15.442  1.00  0.00    +0.010 A 
ATOM     19  C   UNL     1      44.740  35.033  17.354  1.00  0.00    +0.048 A 
ATOM     20  C   UNL     1      43.710  36.231  15.052  1.00  0.00    +0.001 A 
ATOM     21  C   UNL     1      43.420  34.786  16.962  1.00  0.00    +0.021 A 
ATOM     22  C   UNL     1      42.906  35.387  15.814  1.00  0.00    +0.002 A 
ATOM     23 Cl   UNL     1      45.319  34.223  18.771  1.00  0.00    -0.084 Cl
ENDBRANCH  10  17
TORSDOF 3
ENDMDL
MODEL 3
REMARK VINA RESULT:    -6.670      2.784      5.485
REMARK INTER + INTRA:          -8.306
REMARK INTER:                  -7.710
REMARK INTRA:                  -0.596
REMARK UNBOUND:                -0.662
REMARK SMILES Cn1cnc2cc(C#N)c(-c3ccccc3Cl)c(CN)c21
REMARK SMILES IDX 1 1 2 2 3 3 4 4 5 5 6 6 7 7 8 8 9 9 10 10 18 11 21 12 19 13
REMARK SMILES IDX 20 14 11 17 12 18 16 19 13 20 15 21 14 22 17 23
REMARK H PARENT 20 15 20 16
ROOT
ATOM      1  C   UNL     1      40.144  33.561  16.258  1.00  0.00    +0.151 C 
ATOM      2  N   UNL     1      41.372  33.183  15.605  1.00  0.00    -0.333 N 
ATOM      3  C   UNL     1      41.452  32.159  14.702  1.00  0.00    +0.200 A 
ATOM      4  N   UNL     1      42.664  32.022  14.230  1.00  0.00    -0.237 NA
ATOM      5  C   UNL     1      43.398  32.998  14.849  1.00  0.00    +0.090 A 
ATOM      6  C   UNL     1      44.756  33.279  14.675  1.00  0.00    +0.050 A 
ATOM      7  C   UNL     1      45.329  34.329  15.399  1.00  0.00    +0.062 A 
ATOM      8  C   UNL     1      46.730  34.584  15.192  1.00  0.00    +0.100 C 
ATOM      9  N   UNL     1      47.865  34.767  15.024  1.00  0.00    -0.192 NA
ATOM     10  C   UNL     1      44.563  35.099  16.308  1.00  0.00    +0.008 A 
ATOM     11  C   UNL     1      43.170  34.810  16.516  1.00  0.00    +0.001 A 
ATOM     12  C   UNL     1      42.627  33.749  15.740  1.00  0.00    +0.073 A 
ENDROOT
BRANCH  11  13
ATOM     13  C   UNL     1      42.352  35.633  17.488  1.00  0.00    +0.116 C 
BRANCH  13  14
ATOM     14  N   UNL     1      41.600  36.671  16.804  1.00  0.00    -0.326 NA
ATOM     15  H   UNL     1      40.612  36.435  16.770  1.00  0.00    +0.119 HD
ATOM     16  H   UNL     1      41.690  37.554  17.301  1.00  0.00    +0.119 HD
ENDBRANCH  13  14
ENDBRANCH  11  13
BRANCH  10  17
ATOM     17  C   UNL     1      45.219  36.209  17.042  1.00  0.00    +0.002 A 
ATOM     18  C   UNL     1      45.096  37.524  16.552  1.00  0.00    +0.010 A 
ATOM     19  C   UNL     1      45.945  36.010  18.233  1.00  0.00    +0.048 A 
ATOM     20  C   UNL     1      45.690  38.598  17.217  1.00  0.00    +0.001 A 
ATOM     21  C   UNL     1      46.539  37.089  18.896  1.00  0.00    +0.021 A 
ATOM     22  C   UNL     1      46.413  38.380  18.386  1.00  0.00    +0.002 A 
ATOM     23 Cl   UNL     1      46.115  34.441  18.945  1.00  0.00    -0.084 Cl
ENDBRANCH  10  17
TORSDOF 3
ENDMDL
MODEL 4
REMARK VINA RESULT:    -6.635      2.033      2.478
REMARK INTER + INTRA:          -8.266
REMARK INTER:                  -7.647
REMARK INTRA:                  -0.620
REMARK UNBOUND:                -0.662
REMARK SMILES Cn1cnc2cc(C#N)c(-c3ccccc3Cl)c(CN)c21
REMARK SMILES IDX 1 1 2 2 3 3 4 4 5 5 6 6 7 7 8 8 9 9 10 10 18 11 21 12 19 13
REMARK SMILES IDX 20 14 11 17 12 18 16 19 13 20 15 21 14 22 17 23
REMARK H PARENT 20 15 20 16
ROOT
ATOM      1  C   UNL     1      47.856  35.240  16.149  1.00  0.00    +0.151 C 
ATOM      2  N   UNL     1      47.039  34.059  16.265  1.00  0.00    -0.333 N 
ATOM      3  C   UNL     1      47.502  32.881  16.784  1.00  0.00    +0.200 A 
ATOM      4  N   UNL     1      46.570  31.962  16.807  1.00  0.00    -0.237 NA
ATOM      5  C   UNL     1      45.460  32.570  16.286  1.00  0.00    +0.090 A 
ATOM      6  C   UNL     1      44.191  32.012  16.106  1.00  0.00    +0.050 A 
ATOM      7  C   UNL     1      43.175  32.800  15.558  1.00  0.00    +0.062 A 
ATOM      8  C   UNL     1      41.884  32.187  15.389  1.00  0.00    +0.100 C 
ATOM      9  N   UNL     1      40.853  31.672  15.246  1.00  0.00    -0.192 NA
ATOM     10  C   UNL     1      43.413  34.143  15.174  1.00  0.00    +0.008 A 
ATOM     11  C   UNL     1      44.718  34.726  15.330  1.00  0.00    +0.001 A 
ATOM     12  C   UNL     1      45.711  33.893  15.914  1.00  0.00    +0.073 A 
ENDROOT
BRANCH  11  13
ATOM     13  C   UNL     1      44.972  36.161  14.920  1.00  0.00    +0.116 C 
BRANCH  13  14
ATOM     14  N   UNL     1      44.906  37.060  16.058  1.00  0.00    -0.326 NA
ATOM     15  H   UNL     1      45.777  37.574  16.160  1.00  0.00    +0.119 HD
ATOM     16  H   UNL     1      44.159  37.739  15.927  1.00  0.00    +0.119 HD
ENDBRANCH  13  14
ENDBRANCH  11  13
BRANCH  10  17
ATOM     17  C   UNL     1      42.296  34.938  14.608  1.00  0.00    +0.002 A 
ATOM     18  C   UNL     1      41.995  34.821  13.238  1.00  0.00    +0.010 A 
ATOM     19  C   UNL     1      41.499  35.796  15.392  1.00  0.00    +0.048 A 
ATOM     20  C   UNL     1      40.947  35.545  12.666  1.00  0.00    +0.001 A 
ATOM     21  C   UNL     1      40.450  36.521  14.815  1.00  0.00    +0.021 A 
ATOM     22  C   UNL     1      40.177  36.396  13.454  1.00  0.00    +0.002 A 
ATOM     23 Cl   UNL     1      41.755  35.976  17.095  1.00  0.00    -0.084 Cl
ENDBRANCH  10  17
TORSDOF 3
ENDMDL
MODEL 5
REMARK VINA RESULT:    -6.443      2.349      4.873
REMARK INTER + INTRA:          -8.046
REMARK INTER:                  -7.438
REMARK INTRA:                  -0.608
REMARK UNBOUND:                -0.662
REMARK SMILES Cn1cnc2cc(C#N)c(-c3ccccc3Cl)c(CN)c21
REMARK SMILES IDX 1 1 2 2 3 3 4 4 5 5 6 6 7 7 8 8 9 9 10 10 18 11 21 12 19 13
REMARK SMILES IDX 20 14 11 17 12 18 16 19 13 20 15 21 14 22 17 23
REMARK H PARENT 20 15 20 16
ROOT
ATOM      1  C   UNL     1      44.425  29.224  13.347  1.00  0.00    +0.151 C 
ATOM      2  N   UNL     1      43.508  30.082  12.640  1.00  0.00    -0.333 N 
ATOM      3  C   UNL     1      42.847  29.694  11.508  1.00  0.00    +0.200 A 
ATOM      4  N   UNL     1      42.054  30.635  11.063  1.00  0.00    -0.237 NA
ATOM      5  C   UNL     1      42.205  31.672  11.944  1.00  0.00    +0.090 A 
ATOM      6  C   UNL     1      41.562  32.912  11.915  1.00  0.00    +0.050 A 
ATOM      7  C   UNL     1      41.846  33.847  12.914  1.00  0.00    +0.062 A 
ATOM      8  C   UNL     1      41.163  35.112  12.847  1.00  0.00    +0.100 C 
ATOM      9  N   UNL     1      40.614  36.133  12.769  1.00  0.00    -0.192 NA
ATOM     10  C   UNL     1      42.778  33.564  13.942  1.00  0.00    +0.008 A 
ATOM     11  C   UNL     1      43.467  32.302  13.974  1.00  0.00    +0.001 A 
ATOM     12  C   UNL     1      43.127  31.375  12.951  1.00  0.00    +0.073 A 
ENDROOT
BRANCH  11  13
ATOM     13  C   UNL     1      44.464  31.999  15.073  1.00  0.00    +0.116 C 
BRANCH  13  14
ATOM     14  N   UNL     1      43.825  31.361  16.210  1.00  0.00    -0.326 NA
ATOM     15  H   UNL     1      42.816  31.469  16.163  1.00  0.00    +0.119 HD
ATOM     16  H   UNL     1      44.029  30.364  16.214  1.00  0.00    +0.119 HD
ENDBRANCH  13  14
ENDBRANCH  11  13
BRANCH  10  17
ATOM     17  C   UNL     1      43.035  34.588  14.984  1.00  0.00    +0.002 A 
ATOM     18  C   UNL     1      44.158  35.427  14.861  1.00  0.00    +0.010 A 
ATOM     19  C   UNL     1      42.183  34.777  16.091  1.00  0.00    +0.048 A 
ATOM     20  C   UNL     1      44.432  36.410  15.814  1.00  0.00    +0.001 A 
ATOM     21  C   UNL     1      42.461  35.762  17.045  1.00  0.00    +0.021 A 
ATOM     22  C   UNL     1      43.585  36.575  16.907  1.00  0.00    +0.002 A 
ATOM     23 Cl   UNL     1      40.751  33.831  16.312  1.00  0.00    -0.084 Cl
ENDBRANCH  10  17
TORSDOF 3
ENDMDL
MODEL 6
REMARK VINA RESULT:    -6.333      1.828      3.912
REMARK INTER + INTRA:          -7.920
REMARK INTER:                  -7.330
REMARK INTRA:                  -0.590
REMARK UNBOUND:                -0.662
REMARK SMILES Cn1cnc2cc(C#N)c(-c3ccccc3Cl)c(CN)c21
REMARK SMILES IDX 1 1 2 2 3 3 4 4 5 5 6 6 7 7 8 8 9 9 10 10 18 11 21 12 19 13
REMARK SMILES IDX 20 14 11 17 12 18 16 19 13 20 15 21 14 22 17 23
REMARK H PARENT 20 15 20 16
ROOT
ATOM      1  C   UNL     1      44.584  29.980  11.982  1.00  0.00    +0.151 C 
ATOM      2  N   UNL     1      45.071  30.909  12.970  1.00  0.00    -0.333 N 
ATOM      3  C   UNL     1      46.323  30.829  13.514  1.00  0.00    +0.200 A 
ATOM      4  N   UNL     1      46.543  31.795  14.369  1.00  0.00    -0.237 NA
ATOM      5  C   UNL     1      45.389  32.531  14.377  1.00  0.00    +0.090 A 
ATOM      6  C   UNL     1      45.120  33.682  15.122  1.00  0.00    +0.050 A 
ATOM      7  C   UNL     1      43.874  34.301  14.989  1.00  0.00    +0.062 A 
ATOM      8  C   UNL     1      43.638  35.483  15.774  1.00  0.00    +0.100 C 
ATOM      9  N   UNL     1      43.458  36.427  16.427  1.00  0.00    -0.192 NA
ATOM     10  C   UNL     1      42.882  33.776  14.125  1.00  0.00    +0.008 A 
ATOM     11  C   UNL     1      43.132  32.580  13.368  1.00  0.00    +0.001 A 
ATOM     12  C   UNL     1      44.422  32.001  13.518  1.00  0.00    +0.073 A 
ENDROOT
BRANCH  11  13
ATOM     13  C   UNL     1      42.072  32.019  12.445  1.00  0.00    +0.116 C 
BRANCH  13  14
ATOM     14  N   UNL     1      41.494  30.797  12.978  1.00  0.00    -0.326 NA
ATOM     15  H   UNL     1      42.033  29.987  12.682  1.00  0.00    +0.119 HD
ATOM     16  H   UNL     1      41.502  30.819  13.995  1.00  0.00    +0.119 HD
ENDBRANCH  13  14
ENDBRANCH  11  13
BRANCH  10  17
ATOM     17  C   UNL     1      41.580  34.479  14.012  1.00  0.00    +0.002 A 
ATOM     18  C   UNL     1      41.428  35.493  13.048  1.00  0.00    +0.010 A 
ATOM     19  C   UNL     1      40.469  34.157  14.818  1.00  0.00    +0.048 A 
ATOM     20  C   UNL     1      40.217  36.173  12.903  1.00  0.00    +0.001 A 
ATOM     21  C   UNL     1      39.258  34.841  14.671  1.00  0.00    +0.021 A 
ATOM     22  C   UNL     1      39.134  35.850  13.716  1.00  0.00    +0.002 A 
ATOM     23 Cl   UNL     1      40.537  32.894  16.001  1.00  0.00    -0.084 Cl
ENDBRANCH  10  17
TORSDOF 3
ENDMDL
MODEL 7
REMARK VINA RESULT:    -6.263      5.594      7.676
REMARK INTER + INTRA:          -7.840
REMARK INTER:                  -7.164
REMARK INTRA:                  -0.676
REMARK UNBOUND:                -0.662
REMARK SMILES Cn1cnc2cc(C#N)c(-c3ccccc3Cl)c(CN)c21
REMARK SMILES IDX 1 1 2 2 3 3 4 4 5 5 6 6 7 7 8 8 9 9 10 10 18 11 21 12 19 13
REMARK SMILES IDX 20 14 11 17 12 18 16 19 13 20 15 21 14 22 17 23
REMARK H PARENT 20 15 20 16
ROOT
ATOM      1  C   UNL     1      42.516  32.031  14.003  1.00  0.00    +0.151 C 
ATOM      2  N   UNL     1      43.689  31.459  13.391  1.00  0.00    -0.333 N 
ATOM      3  C   UNL     1      44.961  31.811  13.747  1.00  0.00    +0.200 A 
ATOM      4  N   UNL     1      45.857  31.141  13.068  1.00  0.00    -0.237 NA
ATOM      5  C   UNL     1      45.137  30.321  12.242  1.00  0.00    +0.090 A 
ATOM      6  C   UNL     1      45.632  29.394  11.322  1.00  0.00    +0.050 A 
ATOM      7  C   UNL     1      44.731  28.638  10.567  1.00  0.00    +0.062 A 
ATOM      8  C   UNL     1      45.282  27.696   9.631  1.00  0.00    +0.100 C 
ATOM      9  N   UNL     1      45.744  26.951   8.868  1.00  0.00    -0.192 NA
ATOM     10  C   UNL     1      43.331  28.804  10.713  1.00  0.00    +0.008 A 
ATOM     11  C   UNL     1      42.803  29.770  11.638  1.00  0.00    +0.001 A 
ATOM     12  C   UNL     1      43.759  30.497  12.400  1.00  0.00    +0.073 A 
ENDROOT
BRANCH  11  13
ATOM     13  C   UNL     1      41.308  29.948  11.793  1.00  0.00    +0.116 C 
BRANCH  13  14
ATOM     14  N   UNL     1      40.774  29.088  12.835  1.00  0.00    -0.326 NA
ATOM     15  H   UNL     1      41.083  28.128  12.701  1.00  0.00    +0.119 HD
ATOM     16  H   UNL     1      41.105  29.394  13.747  1.00  0.00    +0.119 HD
ENDBRANCH  13  14
ENDBRANCH  11  13
BRANCH  10  17
ATOM     17  C   UNL     1      42.418  27.969   9.895  1.00  0.00    +0.002 A 
ATOM     18  C   UNL     1      41.954  28.463   8.661  1.00  0.00    +0.010 A 
ATOM     19  C   UNL     1      42.009  26.679  10.289  1.00  0.00    +0.048 A 
ATOM     20  C   UNL     1      41.101  27.706   7.857  1.00  0.00    +0.001 A 
ATOM     21  C   UNL     1      41.153  25.924   9.481  1.00  0.00    +0.021 A 
ATOM     22  C   UNL     1      40.698  26.439   8.268  1.00  0.00    +0.002 A 
ATOM     23 Cl   UNL     1      42.560  25.959  11.764  1.00  0.00    -0.084 Cl
ENDBRANCH  10  17
TORSDOF 3
ENDMDL
MODEL 8
REMARK VINA RESULT:    -6.147      2.303      5.682
REMARK INTER + INTRA:          -7.707
REMARK INTER:                  -7.058
REMARK INTRA:                  -0.649
REMARK UNBOUND:                -0.662
REMARK SMILES Cn1cnc2cc(C#N)c(-c3ccccc3Cl)c(CN)c21
REMARK SMILES IDX 1 1 2 2 3 3 4 4 5 5 6 6 7 7 8 8 9 9 10 10 18 11 21 12 19 13
REMARK SMILES IDX 20 14 11 17 12 18 16 19 13 20 15 21 14 22 17 23
REMARK H PARENT 20 15 20 16
ROOT
ATOM      1  C   UNL     1      40.485  36.534  14.385  1.00  0.00    +0.151 C 
ATOM      2  N   UNL     1      41.175  35.336  13.979  1.00  0.00    -0.333 N 
ATOM      3  C   UNL     1      40.838  34.624  12.861  1.00  0.00    +0.200 A 
ATOM      4  N   UNL     1      41.622  33.591  12.689  1.00  0.00    -0.237 NA
ATOM      5  C   UNL     1      42.504  33.637  13.734  1.00  0.00    +0.090 A 
ATOM      6  C   UNL     1      43.555  32.756  13.999  1.00  0.00    +0.050 A 
ATOM      7  C   UNL     1      44.357  32.973  15.122  1.00  0.00    +0.062 A 
ATOM      8  C   UNL     1      45.428  32.042  15.359  1.00  0.00    +0.100 C 
ATOM      9  N   UNL     1      46.278  31.272  15.543  1.00  0.00    -0.192 NA
ATOM     10  C   UNL     1      44.116  34.060  15.998  1.00  0.00    +0.008 A 
ATOM     11  C   UNL     1      43.024  34.964  15.755  1.00  0.00    +0.001 A 
ATOM     12  C   UNL     1      42.252  34.715  14.587  1.00  0.00    +0.073 A 
ENDROOT
BRANCH  11  13
ATOM     13  C   UNL     1      42.765  36.125  16.691  1.00  0.00    +0.116 C 
BRANCH  13  14
ATOM     14  N   UNL     1      41.682  35.834  17.614  1.00  0.00    -0.326 NA
ATOM     15  H   UNL     1      41.366  36.683  18.076  1.00  0.00    +0.119 HD
ATOM     16  H   UNL     1      40.889  35.441  17.112  1.00  0.00    +0.119 HD
ENDBRANCH  13  14
ENDBRANCH  11  13
BRANCH  10  17
ATOM     17  C   UNL     1      45.004  34.252  17.170  1.00  0.00    +0.002 A 
ATOM     18  C   UNL     1      44.651  33.670  18.403  1.00  0.00    +0.010 A 
ATOM     19  C   UNL     1      46.211  34.977  17.101  1.00  0.00    +0.048 A 
ATOM     20  C   UNL     1      45.462  33.818  19.529  1.00  0.00    +0.001 A 
ATOM     21  C   UNL     1      47.021  35.125  18.231  1.00  0.00    +0.021 A 
ATOM     22  C   UNL     1      46.645  34.548  19.444  1.00  0.00    +0.002 A 
ATOM     23 Cl   UNL     1      46.760  35.692  15.623  1.00  0.00    -0.084 Cl
ENDBRANCH  10  17
TORSDOF 3
ENDMDL
MODEL 9
REMARK VINA RESULT:    -6.120      2.047      5.691
REMARK INTER + INTRA:          -7.676
REMARK INTER:                  -6.978
REMARK INTRA:                  -0.698
REMARK UNBOUND:                -0.662
REMARK SMILES Cn1cnc2cc(C#N)c(-c3ccccc3Cl)c(CN)c21
REMARK SMILES IDX 1 1 2 2 3 3 4 4 5 5 6 6 7 7 8 8 9 9 10 10 18 11 21 12 19 13
REMARK SMILES IDX 20 14 11 17 12 18 16 19 13 20 15 21 14 22 17 23
REMARK H PARENT 20 15 20 16
ROOT
ATOM      1  C   UNL     1      40.682  36.036  14.507  1.00  0.00    +0.151 C 
ATOM      2  N   UNL     1      41.537  34.925  14.172  1.00  0.00    -0.333 N 
ATOM      3  C   UNL     1      41.203  33.984  13.238  1.00  0.00    +0.200 A 
ATOM      4  N   UNL     1      42.147  33.090  13.091  1.00  0.00    -0.237 NA
ATOM      5  C   UNL     1      43.133  33.469  13.962  1.00  0.00    +0.090 A 
ATOM      6  C   UNL     1      44.364  32.843  14.177  1.00  0.00    +0.050 A 
ATOM      7  C   UNL     1      45.247  33.388  15.113  1.00  0.00    +0.062 A 
ATOM      8  C   UNL     1      46.503  32.713  15.304  1.00  0.00    +0.100 C 
ATOM      9  N   UNL     1      47.506  32.147  15.457  1.00  0.00    -0.192 NA
ATOM     10  C   UNL     1      44.912  34.550  15.850  1.00  0.00    +0.008 A 
ATOM     11  C   UNL     1      43.641  35.194  15.659  1.00  0.00    +0.001 A 
ATOM     12  C   UNL     1      42.786  34.617  14.680  1.00  0.00    +0.073 A 
ENDROOT
BRANCH  11  13
ATOM     13  C   UNL     1      43.282  36.435  16.447  1.00  0.00    +0.116 C 
BRANCH  13  14
ATOM     14  N   UNL     1      42.468  36.114  17.607  1.00  0.00    -0.326 NA
ATOM     15  H   UNL     1      41.489  36.316  17.425  1.00  0.00    +0.119 HD
ATOM     16  H   UNL     1      42.544  35.123  17.825  1.00  0.00    +0.119 HD
ENDBRANCH  13  14
ENDBRANCH  11  13
BRANCH  10  17
ATOM     17  C   UNL     1      45.891  35.094  16.823  1.00  0.00    +0.002 A 
ATOM     18  C   UNL     1      46.860  36.015  16.381  1.00  0.00    +0.010 A 
ATOM     19  C   UNL     1      45.882  34.745  18.188  1.00  0.00    +0.048 A 
ATOM     20  C   UNL     1      47.794  36.558  17.265  1.00  0.00    +0.001 A 
ATOM     21  C   UNL     1      46.821  35.289  19.071  1.00  0.00    +0.021 A 
ATOM     22  C   UNL     1      47.777  36.193  18.608  1.00  0.00    +0.002 A 
ATOM     23 Cl   UNL     1      44.704  33.658  18.843  1.00  0.00    -0.084 Cl
ENDBRANCH  10  17
TORSDOF 3
ENDMDL
