MODEL 1
REMARK VINA RESULT:    -7.036      0.000      0.000
REMARK INTER + INTRA:          -8.755
REMARK INTER:                  -8.064
REMARK INTRA:                  -0.691
REMARK UNBOUND:                -0.691
REMARK SMILES Cn1cnc2cc(C#N)c(-c3ccccc3Cl)c(CN)c21
REMARK SMILES IDX 1 1 2 2 3 3 4 4 5 5 6 6 7 7 8 8 9 9 10 10 18 11 21 12 19 13
REMARK SMILES IDX 20 14 11 17 12 18 16 19 13 20 15 21 14 22 17 23
REMARK H PARENT 20 15 20 16
ROOT
ATOM      1  C   UNL     1      44.819  52.268  33.576  1.00  0.00    +0.151 C 
ATOM      2  N   UNL     1      45.125  51.750  34.886  1.00  0.00    -0.333 N 
ATOM      3  C   UNL     1      46.383  51.774  35.421  1.00  0.00    +0.200 A 
ATOM      4  N   UNL     1      46.406  51.270  36.628  1.00  0.00    -0.237 NA
ATOM      5  C   UNL     1      45.111  50.907  36.886  1.00  0.00    +0.090 A 
ATOM      6  C   UNL     1      44.608  50.329  38.054  1.00  0.00    +0.050 A 
ATOM      7  C   UNL     1      43.244  50.033  38.131  1.00  0.00    +0.062 A 
ATOM      8  C   UNL     1      42.766  49.438  39.350  1.00  0.00    +0.100 C 
ATOM      9  N   UNL     1      42.400  48.943  40.335  1.00  0.00    -0.192 NA
ATOM     10  C   UNL     1      42.372  50.300  37.046  1.00  0.00    +0.008 A 
ATOM     11  C   UNL     1      42.877  50.873  35.828  1.00  0.00    +0.001 A 
ATOM     12  C   UNL     1      44.266  51.178  35.807  1.00  0.00    +0.073 A 
ENDROOT
BRANCH  11  13
ATOM     13  C   UNL     1      41.946  51.158  34.669  1.00  0.00    +0.116 C 
BRANCH  13  14
ATOM     14  N   UNL     1      41.416  52.509  34.731  1.00  0.00    -0.326 NA
ATOM     15  H   UNL     1      42.160  53.178  34.906  1.00  0.00    +0.119 HD
ATOM     16  H   UNL     1      40.980  52.755  33.846  1.00  0.00    +0.119 HD
ENDBRANCH  13  14
ENDBRANCH  11  13
BRANCH  10  17
ATOM     17  C   UNL     1      40.931  49.977  37.185  1.00  0.00    +0.002 A 
ATOM     18  C   UNL     1      40.470  48.707  36.789  1.00  0.00    +0.010 A 
ATOM     19  C   UNL     1      39.996  50.884  37.723  1.00  0.00    +0.048 A 
ATOM     20  C   UNL     1      39.123  48.359  36.910  1.00  0.00    +0.001 A 
ATOM     21  C   UNL     1      38.647  50.533  37.841  1.00  0.00    +0.021 A 
ATOM     22  C   UNL     1      38.212  49.272  37.433  1.00  0.00    +0.002 A 
ATOM     23 Cl   UNL     1      40.466  52.453  38.283  1.00  0.00    -0.084 Cl
ENDBRANCH  10  17
TORSDOF 3
ENDMDL
MODEL 2
REMARK VINA RESULT:    -6.897      2.678      4.228
REMARK INTER + INTRA:          -8.596
REMARK INTER:                  -7.952
REMARK INTRA:                  -0.644
REMARK UNBOUND:                -0.691
REMARK SMILES Cn1cnc2cc(C#N)c(-c3ccccc3Cl)c(CN)c21
REMARK SMILES IDX 1 1 2 2 3 3 4 4 5 5 6 6 7 7 8 8 9 9 10 10 18 11 21 12 19 13
REMARK SMILES IDX 20 14 11 17 12 18 16 19 13 20 15 21 14 22 17 23
REMARK H PARENT 20 15 20 16
ROOT
ATOM      1  C   UNL     1      42.124  51.918  35.783  1.00  0.00    +0.151 C 
ATOM      2  N   UNL     1      41.763  51.401  37.079  1.00  0.00    -0.333 N 
ATOM      3  C   UNL     1      42.552  51.550  38.186  1.00  0.00    +0.200 A 
ATOM      4  N   UNL     1      42.001  51.018  39.248  1.00  0.00    -0.237 NA
ATOM      5  C   UNL     1      40.808  50.508  38.812  1.00  0.00    +0.090 A 
ATOM      6  C   UNL     1      39.839  49.847  39.570  1.00  0.00    +0.050 A 
ATOM      7  C   UNL     1      38.673  49.401  38.941  1.00  0.00    +0.062 A 
ATOM      8  C   UNL     1      37.701  48.723  39.757  1.00  0.00    +0.100 C 
ATOM      9  N   UNL     1      36.934  48.165  40.428  1.00  0.00    -0.192 NA
ATOM     10  C   UNL     1      38.465  49.599  37.554  1.00  0.00    +0.008 A 
ATOM     11  C   UNL     1      39.462  50.257  36.754  1.00  0.00    +0.001 A 
ATOM     12  C   UNL     1      40.619  50.714  37.443  1.00  0.00    +0.073 A 
ENDROOT
BRANCH  11  13
ATOM     13  C   UNL     1      39.240  50.468  35.271  1.00  0.00    +0.116 C 
BRANCH  13  14
ATOM     14  N   UNL     1      38.736  51.802  34.993  1.00  0.00    -0.326 NA
ATOM     15  H   UNL     1      39.186  52.488  35.592  1.00  0.00    +0.119 HD
ATOM     16  H   UNL     1      38.932  52.057  34.028  1.00  0.00    +0.119 HD
ENDBRANCH  13  14
ENDBRANCH  11  13
BRANCH  10  17
ATOM     17  C   UNL     1      37.205  49.116  36.938  1.00  0.00    +0.002 A 
ATOM     18  C   UNL     1      37.113  47.773  36.524  1.00  0.00    +0.010 A 
ATOM     19  C   UNL     1      36.075  49.941  36.770  1.00  0.00    +0.048 A 
ATOM     20  C   UNL     1      35.943  47.275  35.948  1.00  0.00    +0.001 A 
ATOM     21  C   UNL     1      34.904  49.439  36.192  1.00  0.00    +0.021 A 
ATOM     22  C   UNL     1      34.841  48.108  35.779  1.00  0.00    +0.002 A 
ATOM     23 Cl   UNL     1      36.067  51.592  37.289  1.00  0.00    -0.084 Cl
ENDBRANCH  10  17
TORSDOF 3
ENDMDL
MODEL 3
REMARK VINA RESULT:    -6.757      2.413      5.634
REMARK INTER + INTRA:          -8.436
REMARK INTER:                  -7.789
REMARK INTRA:                  -0.647
REMARK UNBOUND:                -0.691
REMARK SMILES Cn1cnc2cc(C#N)c(-c3ccccc3Cl)c(CN)c21
REMARK SMILES IDX 1 1 2 2 3 3 4 4 5 5 6 6 7 7 8 8 9 9 10 10 18 11 21 12 19 13
REMARK SMILES IDX 20 14 11 17 12 18 16 19 13 20 15 21 14 22 17 23
REMARK H PARENT 20 15 20 16
ROOT
ATOM      1  C   UNL     1      36.070  48.984  36.206  1.00  0.00    +0.151 C 
ATOM      2  N   UNL     1      37.080  48.947  37.233  1.00  0.00    -0.333 N 
ATOM      3  C   UNL     1      36.856  48.429  38.479  1.00  0.00    +0.200 A 
ATOM      4  N   UNL     1      37.928  48.485  39.227  1.00  0.00    -0.237 NA
ATOM      5  C   UNL     1      38.885  49.060  38.434  1.00  0.00    +0.090 A 
ATOM      6  C   UNL     1      40.214  49.331  38.766  1.00  0.00    +0.050 A 
ATOM      7  C   UNL     1      41.046  49.921  37.811  1.00  0.00    +0.062 A 
ATOM      8  C   UNL     1      42.407  50.184  38.194  1.00  0.00    +0.100 C 
ATOM      9  N   UNL     1      43.499  50.404  38.525  1.00  0.00    -0.192 NA
ATOM     10  C   UNL     1      40.562  50.257  36.522  1.00  0.00    +0.008 A 
ATOM     11  C   UNL     1      39.190  50.007  36.170  1.00  0.00    +0.001 A 
ATOM     12  C   UNL     1      38.391  49.383  37.167  1.00  0.00    +0.073 A 
ENDROOT
BRANCH  11  13
ATOM     13  C   UNL     1      38.673  50.367  34.794  1.00  0.00    +0.116 C 
BRANCH  13  14
ATOM     14  N   UNL     1      38.037  51.673  34.789  1.00  0.00    -0.326 NA
ATOM     15  H   UNL     1      38.559  52.328  35.364  1.00  0.00    +0.119 HD
ATOM     16  H   UNL     1      38.009  52.046  33.843  1.00  0.00    +0.119 HD
ENDBRANCH  13  14
ENDBRANCH  11  13
BRANCH  10  17
ATOM     17  C   UNL     1      41.490  50.872  35.542  1.00  0.00    +0.002 A 
ATOM     18  C   UNL     1      42.100  50.058  34.569  1.00  0.00    +0.010 A 
ATOM     19  C   UNL     1      41.773  52.253  35.524  1.00  0.00    +0.048 A 
ATOM     20  C   UNL     1      42.972  50.597  33.622  1.00  0.00    +0.001 A 
ATOM     21  C   UNL     1      42.649  52.789  34.575  1.00  0.00    +0.021 A 
ATOM     22  C   UNL     1      43.249  51.961  33.627  1.00  0.00    +0.002 A 
ATOM     23 Cl   UNL     1      41.040  53.348  36.646  1.00  0.00    -0.084 Cl
ENDBRANCH  10  17
TORSDOF 3
ENDMDL
MODEL 4
REMARK VINA RESULT:    -6.365      3.421      6.900
REMARK INTER + INTRA:          -7.987
REMARK INTER:                  -7.299
REMARK INTRA:                  -0.688
REMARK UNBOUND:                -0.691
REMARK SMILES Cn1cnc2cc(C#N)c(-c3ccccc3Cl)c(CN)c21
REMARK SMILES IDX 1 1 2 2 3 3 4 4 5 5 6 6 7 7 8 8 9 9 10 10 18 11 21 12 19 13
REMARK SMILES IDX 20 14 11 17 12 18 16 19 13 20 15 21 14 22 17 23
REMARK H PARENT 20 15 20 16
ROOT
ATOM      1  C   UNL     1      39.695  49.422  42.822  1.00  0.00    +0.151 C 
ATOM      2  N   UNL     1      38.669  48.991  41.905  1.00  0.00    -0.333 N 
ATOM      3  C   UNL     1      37.535  48.342  42.308  1.00  0.00    +0.200 A 
ATOM      4  N   UNL     1      36.746  48.075  41.299  1.00  0.00    -0.237 NA
ATOM      5  C   UNL     1      37.393  48.573  40.200  1.00  0.00    +0.090 A 
ATOM      6  C   UNL     1      36.956  48.549  38.873  1.00  0.00    +0.050 A 
ATOM      7  C   UNL     1      37.762  49.119  37.883  1.00  0.00    +0.062 A 
ATOM      8  C   UNL     1      37.276  49.073  36.530  1.00  0.00    +0.100 C 
ATOM      9  N   UNL     1      36.875  49.013  35.441  1.00  0.00    -0.192 NA
ATOM     10  C   UNL     1      39.011  49.706  38.201  1.00  0.00    +0.008 A 
ATOM     11  C   UNL     1      39.487  49.719  39.558  1.00  0.00    +0.001 A 
ATOM     12  C   UNL     1      38.622  49.149  40.532  1.00  0.00    +0.073 A 
ENDROOT
BRANCH  11  13
ATOM     13  C   UNL     1      40.823  50.346  39.897  1.00  0.00    +0.116 C 
BRANCH  13  14
ATOM     14  N   UNL     1      41.892  49.363  39.881  1.00  0.00    -0.326 NA
ATOM     15  H   UNL     1      42.638  49.634  40.516  1.00  0.00    +0.119 HD
ATOM     16  H   UNL     1      41.541  48.458  40.185  1.00  0.00    +0.119 HD
ENDBRANCH  13  14
ENDBRANCH  11  13
BRANCH  10  17
ATOM     17  C   UNL     1      39.822  50.307  37.114  1.00  0.00    +0.002 A 
ATOM     18  C   UNL     1      39.721  51.689  36.865  1.00  0.00    +0.010 A 
ATOM     19  C   UNL     1      40.716  49.555  36.326  1.00  0.00    +0.048 A 
ATOM     20  C   UNL     1      40.473  52.297  35.858  1.00  0.00    +0.001 A 
ATOM     21  C   UNL     1      41.467  50.167  35.317  1.00  0.00    +0.021 A 
ATOM     22  C   UNL     1      41.342  51.536  35.082  1.00  0.00    +0.002 A 
ATOM     23 Cl   UNL     1      40.950  47.859  36.581  1.00  0.00    -0.084 Cl
ENDBRANCH  10  17
TORSDOF 3
ENDMDL
MODEL 5
REMARK VINA RESULT:    -6.231      8.340     10.986
REMARK INTER + INTRA:          -7.833
REMARK INTER:                  -7.218
REMARK INTRA:                  -0.615
REMARK UNBOUND:                -0.691
REMARK SMILES Cn1cnc2cc(C#N)c(-c3ccccc3Cl)c(CN)c21
REMARK SMILES IDX 1 1 2 2 3 3 4 4 5 5 6 6 7 7 8 8 9 9 10 10 18 11 21 12 19 13
REMARK SMILES IDX 20 14 11 17 12 18 16 19 13 20 15 21 14 22 17 23
REMARK H PARENT 20 15 20 16
ROOT
ATOM      1  C   UNL     1      37.401  48.771  40.891  1.00  0.00    +0.151 C 
ATOM      2  N   UNL     1      36.775  49.942  41.454  1.00  0.00    -0.333 N 
ATOM      3  C   UNL     1      36.493  51.061  40.720  1.00  0.00    +0.200 A 
ATOM      4  N   UNL     1      35.905  51.979  41.443  1.00  0.00    -0.237 NA
ATOM      5  C   UNL     1      35.800  51.433  42.694  1.00  0.00    +0.090 A 
ATOM      6  C   UNL     1      35.232  52.014  43.830  1.00  0.00    +0.050 A 
ATOM      7  C   UNL     1      35.213  51.290  45.025  1.00  0.00    +0.062 A 
ATOM      8  C   UNL     1      34.619  51.924  46.172  1.00  0.00    +0.100 C 
ATOM      9  N   UNL     1      34.150  52.458  47.091  1.00  0.00    -0.192 NA
ATOM     10  C   UNL     1      35.767  49.988  45.105  1.00  0.00    +0.008 A 
ATOM     11  C   UNL     1      36.377  49.384  43.951  1.00  0.00    +0.001 A 
ATOM     12  C   UNL     1      36.350  50.149  42.753  1.00  0.00    +0.073 A 
ENDROOT
BRANCH  11  13
ATOM     13  C   UNL     1      36.970  47.993  44.036  1.00  0.00    +0.116 C 
BRANCH  13  14
ATOM     14  N   UNL     1      36.018  46.981  43.614  1.00  0.00    -0.326 NA
ATOM     15  H   UNL     1      35.159  47.050  44.153  1.00  0.00    +0.119 HD
ATOM     16  H   UNL     1      35.779  47.111  42.634  1.00  0.00    +0.119 HD
ENDBRANCH  13  14
ENDBRANCH  11  13
BRANCH  10  17
ATOM     17  C   UNL     1      35.711  49.259  46.395  1.00  0.00    +0.002 A 
ATOM     18  C   UNL     1      34.667  48.342  46.621  1.00  0.00    +0.010 A 
ATOM     19  C   UNL     1      36.679  49.424  47.406  1.00  0.00    +0.048 A 
ATOM     20  C   UNL     1      34.581  47.628  47.817  1.00  0.00    +0.001 A 
ATOM     21  C   UNL     1      36.589  48.708  48.604  1.00  0.00    +0.021 A 
ATOM     22  C   UNL     1      35.540  47.813  48.810  1.00  0.00    +0.002 A 
ATOM     23 Cl   UNL     1      38.029  50.491  47.210  1.00  0.00    -0.084 Cl
ENDBRANCH  10  17
TORSDOF 3
ENDMDL
MODEL 6
REMARK VINA RESULT:    -6.171      9.178     11.810
REMARK INTER + INTRA:          -7.764
REMARK INTER:                  -7.112
REMARK INTRA:                  -0.652
REMARK UNBOUND:                -0.691
REMARK SMILES Cn1cnc2cc(C#N)c(-c3ccccc3Cl)c(CN)c21
REMARK SMILES IDX 1 1 2 2 3 3 4 4 5 5 6 6 7 7 8 8 9 9 10 10 18 11 21 12 19 13
REMARK SMILES IDX 20 14 11 17 12 18 16 19 13 20 15 21 14 22 17 23
REMARK H PARENT 20 15 20 16
ROOT
ATOM      1  C   UNL     1      36.145  51.879  41.181  1.00  0.00    +0.151 C 
ATOM      2  N   UNL     1      35.555  52.759  42.157  1.00  0.00    -0.333 N 
ATOM      3  C   UNL     1      35.077  54.002  41.848  1.00  0.00    +0.200 A 
ATOM      4  N   UNL     1      34.568  54.600  42.894  1.00  0.00    -0.237 NA
ATOM      5  C   UNL     1      34.719  53.708  43.921  1.00  0.00    +0.090 A 
ATOM      6  C   UNL     1      34.323  53.869  45.251  1.00  0.00    +0.050 A 
ATOM      7  C   UNL     1      34.561  52.834  46.160  1.00  0.00    +0.062 A 
ATOM      8  C   UNL     1      34.139  53.040  47.520  1.00  0.00    +0.100 C 
ATOM      9  N   UNL     1      33.805  53.229  48.617  1.00  0.00    -0.192 NA
ATOM     10  C   UNL     1      35.203  51.637  45.758  1.00  0.00    +0.008 A 
ATOM     11  C   UNL     1      35.638  51.463  44.399  1.00  0.00    +0.001 A 
ATOM     12  C   UNL     1      35.352  52.533  43.507  1.00  0.00    +0.073 A 
ENDROOT
BRANCH  11  13
ATOM     13  C   UNL     1      36.324  50.184  43.969  1.00  0.00    +0.116 C 
BRANCH  13  14
ATOM     14  N   UNL     1      35.383  49.245  43.385  1.00  0.00    -0.326 NA
ATOM     15  H   UNL     1      35.363  49.339  42.373  1.00  0.00    +0.119 HD
ATOM     16  H   UNL     1      35.659  48.290  43.602  1.00  0.00    +0.119 HD
ENDBRANCH  13  14
ENDBRANCH  11  13
BRANCH  10  17
ATOM     17  C   UNL     1      35.421  50.565  46.760  1.00  0.00    +0.002 A 
ATOM     18  C   UNL     1      34.447  49.560  46.914  1.00  0.00    +0.010 A 
ATOM     19  C   UNL     1      36.581  50.491  47.556  1.00  0.00    +0.048 A 
ATOM     20  C   UNL     1      34.616  48.528  47.839  1.00  0.00    +0.001 A 
ATOM     21  C   UNL     1      36.747  49.457  48.483  1.00  0.00    +0.021 A 
ATOM     22  C   UNL     1      35.764  48.478  48.625  1.00  0.00    +0.002 A 
ATOM     23 Cl   UNL     1      37.861  51.649  47.412  1.00  0.00    -0.084 Cl
ENDBRANCH  10  17
TORSDOF 3
ENDMDL
MODEL 7
REMARK VINA RESULT:    -6.037      2.421      6.044
REMARK INTER + INTRA:          -7.611
REMARK INTER:                  -6.928
REMARK INTRA:                  -0.683
REMARK UNBOUND:                -0.691
REMARK SMILES Cn1cnc2cc(C#N)c(-c3ccccc3Cl)c(CN)c21
REMARK SMILES IDX 1 1 2 2 3 3 4 4 5 5 6 6 7 7 8 8 9 9 10 10 18 11 21 12 19 13
REMARK SMILES IDX 20 14 11 17 12 18 16 19 13 20 15 21 14 22 17 23
REMARK H PARENT 20 15 20 16
ROOT
ATOM      1  C   UNL     1      37.278  50.958  39.286  1.00  0.00    +0.151 C 
ATOM      2  N   UNL     1      37.648  50.679  37.922  1.00  0.00    -0.333 N 
ATOM      3  C   UNL     1      36.742  50.324  36.961  1.00  0.00    +0.200 A 
ATOM      4  N   UNL     1      37.313  50.146  35.798  1.00  0.00    -0.237 NA
ATOM      5  C   UNL     1      38.642  50.398  36.012  1.00  0.00    +0.090 A 
ATOM      6  C   UNL     1      39.677  50.355  35.075  1.00  0.00    +0.050 A 
ATOM      7  C   UNL     1      40.979  50.652  35.488  1.00  0.00    +0.062 A 
ATOM      8  C   UNL     1      42.016  50.595  34.493  1.00  0.00    +0.100 C 
ATOM      9  N   UNL     1      42.843  50.529  33.679  1.00  0.00    -0.192 NA
ATOM     10  C   UNL     1      41.264  50.984  36.836  1.00  0.00    +0.008 A 
ATOM     11  C   UNL     1      40.215  51.011  37.818  1.00  0.00    +0.001 A 
ATOM     12  C   UNL     1      38.905  50.725  37.345  1.00  0.00    +0.073 A 
ENDROOT
BRANCH  11  13
ATOM     13  C   UNL     1      40.520  51.365  39.258  1.00  0.00    +0.116 C 
BRANCH  13  14
ATOM     14  N   UNL     1      40.297  52.777  39.518  1.00  0.00    -0.326 NA
ATOM     15  H   UNL     1      40.484  53.329  38.685  1.00  0.00    +0.119 HD
ATOM     16  H   UNL     1      39.328  52.936  39.784  1.00  0.00    +0.119 HD
ENDBRANCH  13  14
ENDBRANCH  11  13
BRANCH  10  17
ATOM     17  C   UNL     1      42.662  51.302  37.218  1.00  0.00    +0.002 A 
ATOM     18  C   UNL     1      43.505  50.266  37.663  1.00  0.00    +0.010 A 
ATOM     19  C   UNL     1      43.198  52.603  37.133  1.00  0.00    +0.048 A 
ATOM     20  C   UNL     1      44.829  50.520  38.025  1.00  0.00    +0.001 A 
ATOM     21  C   UNL     1      44.525  52.854  37.497  1.00  0.00    +0.021 A 
ATOM     22  C   UNL     1      45.338  51.813  37.945  1.00  0.00    +0.002 A 
ATOM     23 Cl   UNL     1      42.260  53.938  36.553  1.00  0.00    -0.084 Cl
ENDBRANCH  10  17
TORSDOF 3
ENDMDL
