MODEL 1
REMARK VINA RESULT:    -9.454      0.000      0.000
REMARK INTER + INTRA:         -12.983
REMARK INTER:                 -12.494
REMARK INTRA:                  -0.489
REMARK UNBOUND:                -0.489
REMARK SMILES C[C@H](c1nc(-c2ccc(S(C)(=O)=O)cc2)no1)[C@H](N)C(=O)N1CCCC1
REMARK SMILES IDX 3 1 4 2 5 3 16 4 17 5 2 6 1 7 18 8 19 9 20 12 21 13 22 14
REMARK SMILES IDX 23 15 26 16 24 17 25 18 6 19 7 20 15 21 8 22 14 23 9 24
REMARK SMILES IDX 10 25 12 26 13 27 11 28
REMARK H PARENT 19 10 19 11
ROOT
ATOM      1  C   UNL     1      43.130  34.800  14.957  1.00  0.00    +0.231 A 
ATOM      2  N   UNL     1      43.999  34.849  15.938  1.00  0.00    -0.191 NA
ATOM      3  C   UNL     1      44.974  35.685  15.438  1.00  0.00    +0.202 A 
ATOM      4  N   UNL     1      44.704  36.158  14.209  1.00  0.00    -0.057 NA
ATOM      5  O   UNL     1      43.478  35.581  13.893  1.00  0.00    -0.339 OA
ENDROOT
BRANCH   1   6
ATOM      6  C   UNL     1      41.824  34.071  14.885  1.00  0.00    +0.102 C 
ATOM      7  C   UNL     1      42.097  32.568  15.027  1.00  0.00    +0.020 C 
BRANCH   6   8
ATOM      8  C   UNL     1      40.819  34.596  15.949  1.00  0.00    +0.153 C 
BRANCH   8   9
ATOM      9  N   UNL     1      40.825  33.807  17.208  1.00  0.00    -0.319 NA
ATOM     10  H   UNL     1      40.796  34.454  17.999  1.00  0.00    +0.119 HD
ATOM     11  H   UNL     1      39.990  33.231  17.273  1.00  0.00    +0.119 HD
ENDBRANCH   8   9
BRANCH   8  12
ATOM     12  C   UNL     1      39.371  34.564  15.387  1.00  0.00    +0.240 C 
ATOM     13  O   UNL     1      38.529  33.783  15.838  1.00  0.00    -0.273 OA
ATOM     14  N   UNL     1      39.050  35.474  14.402  1.00  0.00    -0.341 N 
ATOM     15  C   UNL     1      39.908  36.507  13.844  1.00  0.00    +0.119 C 
ATOM     16  C   UNL     1      37.703  35.561  13.867  1.00  0.00    +0.119 C 
ATOM     17  C   UNL     1      39.109  37.066  12.673  1.00  0.00    +0.023 C 
ATOM     18  C   UNL     1      37.668  36.894  13.133  1.00  0.00    +0.023 C 
ENDBRANCH   8  12
ENDBRANCH   6   8
ENDBRANCH   1   6
BRANCH   3  19
ATOM     19  C   UNL     1      46.179  36.014  16.193  1.00  0.00    +0.023 A 
ATOM     20  C   UNL     1      47.414  35.420  15.885  1.00  0.00    +0.013 A 
ATOM     21  C   UNL     1      46.118  36.943  17.246  1.00  0.00    +0.013 A 
ATOM     22  C   UNL     1      48.563  35.740  16.616  1.00  0.00    +0.021 A 
ATOM     23  C   UNL     1      47.262  37.269  17.981  1.00  0.00    +0.021 A 
ATOM     24  C   UNL     1      48.476  36.653  17.668  1.00  0.00    +0.067 A 
BRANCH  24  25
ATOM     25  S   UNL     1      49.934  37.072  18.595  1.00  0.00    +0.175 S 
ATOM     26  O   UNL     1      50.211  35.970  19.498  1.00  0.00    -0.224 OA
ATOM     27  O   UNL     1      50.936  37.530  17.650  1.00  0.00    -0.224 OA
ATOM     28  C   UNL     1      49.411  38.462  19.566  1.00  0.00    +0.163 C 
ENDBRANCH  24  25
ENDBRANCH   3  19
TORSDOF 6
ENDMDL
MODEL 2
REMARK VINA RESULT:    -9.295      5.522      8.725
REMARK INTER + INTRA:         -12.773
REMARK INTER:                 -12.002
REMARK INTRA:                  -0.770
REMARK UNBOUND:                -0.489
REMARK SMILES C[C@H](c1nc(-c2ccc(S(C)(=O)=O)cc2)no1)[C@H](N)C(=O)N1CCCC1
REMARK SMILES IDX 3 1 4 2 5 3 16 4 17 5 2 6 1 7 18 8 19 9 20 12 21 13 22 14
REMARK SMILES IDX 23 15 26 16 24 17 25 18 6 19 7 20 15 21 8 22 14 23 9 24
REMARK SMILES IDX 10 25 12 26 13 27 11 28
REMARK H PARENT 19 10 19 11
ROOT
ATOM      1  C   UNL     1      42.043  32.757  14.454  1.00  0.00    +0.231 A 
ATOM      2  N   UNL     1      41.897  31.521  14.040  1.00  0.00    -0.191 NA
ATOM      3  C   UNL     1      42.027  31.642  12.673  1.00  0.00    +0.202 A 
ATOM      4  N   UNL     1      42.275  32.897  12.261  1.00  0.00    -0.057 NA
ATOM      5  O   UNL     1      42.295  33.636  13.440  1.00  0.00    -0.339 OA
ENDROOT
BRANCH   1   6
ATOM      6  C   UNL     1      42.028  33.295  15.851  1.00  0.00    +0.102 C 
ATOM      7  C   UNL     1      43.473  33.352  16.366  1.00  0.00    +0.020 C 
BRANCH   6   8
ATOM      8  C   UNL     1      41.316  34.676  15.923  1.00  0.00    +0.153 C 
BRANCH   8   9
ATOM      9  N   UNL     1      41.347  35.287  17.276  1.00  0.00    -0.319 NA
ATOM     10  H   UNL     1      41.940  36.120  17.245  1.00  0.00    +0.119 HD
ATOM     11  H   UNL     1      40.419  35.602  17.549  1.00  0.00    +0.119 HD
ENDBRANCH   8   9
BRANCH   8  12
ATOM     12  C   UNL     1      39.825  34.536  15.510  1.00  0.00    +0.240 C 
ATOM     13  O   UNL     1      39.078  33.735  16.077  1.00  0.00    -0.273 OA
ATOM     14  N   UNL     1      39.357  35.376  14.521  1.00  0.00    -0.341 N 
ATOM     15  C   UNL     1      40.094  36.425  13.834  1.00  0.00    +0.119 C 
ATOM     16  C   UNL     1      37.962  35.363  14.120  1.00  0.00    +0.119 C 
ATOM     17  C   UNL     1      39.154  36.879  12.725  1.00  0.00    +0.023 C 
ATOM     18  C   UNL     1      37.777  36.652  13.333  1.00  0.00    +0.023 C 
ENDBRANCH   8  12
ENDBRANCH   6   8
ENDBRANCH   1   6
BRANCH   3  19
ATOM     19  C   UNL     1      41.908  30.496  11.776  1.00  0.00    +0.023 A 
ATOM     20  C   UNL     1      42.275  30.592  10.423  1.00  0.00    +0.013 A 
ATOM     21  C   UNL     1      41.422  29.269  12.261  1.00  0.00    +0.013 A 
ATOM     22  C   UNL     1      42.155  29.489   9.571  1.00  0.00    +0.021 A 
ATOM     23  C   UNL     1      41.300  28.163  11.415  1.00  0.00    +0.021 A 
ATOM     24  C   UNL     1      41.656  28.285  10.070  1.00  0.00    +0.067 A 
BRANCH  24  25
ATOM     25  S   UNL     1      41.510  26.878   8.995  1.00  0.00    +0.175 S 
ATOM     26  O   UNL     1      40.431  27.148   8.063  1.00  0.00    -0.224 OA
ATOM     27  O   UNL     1      42.841  26.553   8.518  1.00  0.00    -0.224 OA
ATOM     28  C   UNL     1      40.982  25.585  10.089  1.00  0.00    +0.163 C 
ENDBRANCH  24  25
ENDBRANCH   3  19
TORSDOF 6
ENDMDL
MODEL 3
REMARK VINA RESULT:    -8.741      4.935      8.207
REMARK INTER + INTRA:         -12.041
REMARK INTER:                 -11.344
REMARK INTRA:                  -0.697
REMARK UNBOUND:                -0.489
REMARK SMILES C[C@H](c1nc(-c2ccc(S(C)(=O)=O)cc2)no1)[C@H](N)C(=O)N1CCCC1
REMARK SMILES IDX 3 1 4 2 5 3 16 4 17 5 2 6 1 7 18 8 19 9 20 12 21 13 22 14
REMARK SMILES IDX 23 15 26 16 24 17 25 18 6 19 7 20 15 21 8 22 14 23 9 24
REMARK SMILES IDX 10 25 12 26 13 27 11 28
REMARK H PARENT 19 10 19 11
ROOT
ATOM      1  C   UNL     1      42.793  32.993  15.782  1.00  0.00    +0.231 A 
ATOM      2  N   UNL     1      43.180  32.487  14.635  1.00  0.00    -0.191 NA
ATOM      3  C   UNL     1      42.104  31.709  14.268  1.00  0.00    +0.202 A 
ATOM      4  N   UNL     1      41.079  31.757  15.136  1.00  0.00    -0.057 NA
ATOM      5  O   UNL     1      41.530  32.615  16.135  1.00  0.00    -0.339 OA
ENDROOT
BRANCH   1   6
ATOM      6  C   UNL     1      43.511  33.946  16.687  1.00  0.00    +0.102 C 
ATOM      7  C   UNL     1      44.962  33.472  16.840  1.00  0.00    +0.020 C 
BRANCH   6   8
ATOM      8  C   UNL     1      43.414  35.409  16.166  1.00  0.00    +0.153 C 
BRANCH   8   9
ATOM      9  N   UNL     1      44.047  36.401  17.072  1.00  0.00    -0.319 NA
ATOM     10  H   UNL     1      44.311  37.222  16.522  1.00  0.00    +0.119 HD
ATOM     11  H   UNL     1      43.383  36.722  17.772  1.00  0.00    +0.119 HD
ENDBRANCH   8   9
BRANCH   8  12
ATOM     12  C   UNL     1      41.926  35.822  15.991  1.00  0.00    +0.240 C 
ATOM     13  O   UNL     1      41.246  36.179  16.955  1.00  0.00    -0.273 OA
ATOM     14  N   UNL     1      41.413  35.823  14.710  1.00  0.00    -0.341 N 
ATOM     15  C   UNL     1      42.120  35.517  13.477  1.00  0.00    +0.119 C 
ATOM     16  C   UNL     1      40.054  36.260  14.445  1.00  0.00    +0.119 C 
ATOM     17  C   UNL     1      41.026  35.479  12.417  1.00  0.00    +0.023 C 
ATOM     18  C   UNL     1      40.011  36.486  12.941  1.00  0.00    +0.023 C 
ENDBRANCH   8  12
ENDBRANCH   6   8
ENDBRANCH   1   6
BRANCH   3  19
ATOM     19  C   UNL     1      42.098  30.918  13.041  1.00  0.00    +0.023 A 
ATOM     20  C   UNL     1      41.991  29.518  13.080  1.00  0.00    +0.013 A 
ATOM     21  C   UNL     1      42.197  31.555  11.791  1.00  0.00    +0.013 A 
ATOM     22  C   UNL     1      41.989  28.768  11.899  1.00  0.00    +0.021 A 
ATOM     23  C   UNL     1      42.195  30.813  10.607  1.00  0.00    +0.021 A 
ATOM     24  C   UNL     1      42.104  29.420  10.671  1.00  0.00    +0.067 A 
BRANCH  24  25
ATOM     25  S   UNL     1      42.092  28.475   9.166  1.00  0.00    +0.175 S 
ATOM     26  O   UNL     1      40.799  28.670   8.536  1.00  0.00    -0.224 OA
ATOM     27  O   UNL     1      43.320  28.774   8.453  1.00  0.00    -0.224 OA
ATOM     28  C   UNL     1      42.178  26.798   9.739  1.00  0.00    +0.163 C 
ENDBRANCH  24  25
ENDBRANCH   3  19
TORSDOF 6
ENDMDL
MODEL 4
REMARK VINA RESULT:    -8.264      5.261      9.318
REMARK INTER + INTRA:         -11.411
REMARK INTER:                 -10.727
REMARK INTRA:                  -0.683
REMARK UNBOUND:                -0.489
REMARK SMILES C[C@H](c1nc(-c2ccc(S(C)(=O)=O)cc2)no1)[C@H](N)C(=O)N1CCCC1
REMARK SMILES IDX 3 1 4 2 5 3 16 4 17 5 2 6 1 7 18 8 19 9 20 12 21 13 22 14
REMARK SMILES IDX 23 15 26 16 24 17 25 18 6 19 7 20 15 21 8 22 14 23 9 24
REMARK SMILES IDX 10 25 12 26 13 27 11 28
REMARK H PARENT 19 10 19 11
ROOT
ATOM      1  C   UNL     1      42.135  33.870  14.327  1.00  0.00    +0.231 A 
ATOM      2  N   UNL     1      42.230  33.285  13.156  1.00  0.00    -0.191 NA
ATOM      3  C   UNL     1      41.927  31.972  13.447  1.00  0.00    +0.202 A 
ATOM      4  N   UNL     1      41.626  31.760  14.740  1.00  0.00    -0.057 NA
ATOM      5  O   UNL     1      41.754  33.017  15.322  1.00  0.00    -0.339 OA
ENDROOT
BRANCH   1   6
ATOM      6  C   UNL     1      42.325  35.312  14.683  1.00  0.00    +0.102 C 
ATOM      7  C   UNL     1      41.069  36.086  14.262  1.00  0.00    +0.020 C 
BRANCH   6   8
ATOM      8  C   UNL     1      42.655  35.486  16.193  1.00  0.00    +0.153 C 
BRANCH   8   9
ATOM      9  N   UNL     1      41.819  36.514  16.865  1.00  0.00    -0.319 NA
ATOM     10  H   UNL     1      41.332  37.058  16.149  1.00  0.00    +0.119 HD
ATOM     11  H   UNL     1      41.099  36.074  17.433  1.00  0.00    +0.119 HD
ENDBRANCH   8   9
BRANCH   8  12
ATOM     12  C   UNL     1      44.140  35.904  16.376  1.00  0.00    +0.240 C 
ATOM     13  O   UNL     1      44.622  36.844  15.739  1.00  0.00    -0.273 OA
ATOM     14  N   UNL     1      44.883  35.217  17.314  1.00  0.00    -0.341 N 
ATOM     15  C   UNL     1      44.424  34.157  18.197  1.00  0.00    +0.119 C 
ATOM     16  C   UNL     1      46.259  35.584  17.600  1.00  0.00    +0.119 C 
ATOM     17  C   UNL     1      45.696  33.643  18.859  1.00  0.00    +0.023 C 
ATOM     18  C   UNL     1      46.575  34.885  18.914  1.00  0.00    +0.023 C 
ENDBRANCH   8  12
ENDBRANCH   6   8
ENDBRANCH   1   6
BRANCH   3  19
ATOM     19  C   UNL     1      41.935  30.928  12.428  1.00  0.00    +0.023 A 
ATOM     20  C   UNL     1      42.237  31.223  11.088  1.00  0.00    +0.013 A 
ATOM     21  C   UNL     1      41.641  29.598  12.778  1.00  0.00    +0.013 A 
ATOM     22  C   UNL     1      42.239  30.216  10.117  1.00  0.00    +0.021 A 
ATOM     23  C   UNL     1      41.643  28.586  11.814  1.00  0.00    +0.021 A 
ATOM     24  C   UNL     1      41.930  28.906  10.485  1.00  0.00    +0.067 A 
BRANCH  24  25
ATOM     25  S   UNL     1      41.940  27.619   9.259  1.00  0.00    +0.175 S 
ATOM     26  O   UNL     1      40.876  27.904   8.315  1.00  0.00    -0.224 OA
ATOM     27  O   UNL     1      43.310  27.457   8.809  1.00  0.00    -0.224 OA
ATOM     28  C   UNL     1      41.486  26.175  10.183  1.00  0.00    +0.163 C 
ENDBRANCH  24  25
ENDBRANCH   3  19
TORSDOF 6
ENDMDL
MODEL 5
REMARK VINA RESULT:    -7.995      4.704      8.811
REMARK INTER + INTRA:         -11.055
REMARK INTER:                 -10.494
REMARK INTRA:                  -0.560
REMARK UNBOUND:                -0.489
REMARK SMILES C[C@H](c1nc(-c2ccc(S(C)(=O)=O)cc2)no1)[C@H](N)C(=O)N1CCCC1
REMARK SMILES IDX 3 1 4 2 5 3 16 4 17 5 2 6 1 7 18 8 19 9 20 12 21 13 22 14
REMARK SMILES IDX 23 15 26 16 24 17 25 18 6 19 7 20 15 21 8 22 14 23 9 24
REMARK SMILES IDX 10 25 12 26 13 27 11 28
REMARK H PARENT 19 10 19 11
ROOT
ATOM      1  C   UNL     1      42.554  34.362  14.888  1.00  0.00    +0.231 A 
ATOM      2  N   UNL     1      42.887  33.895  13.708  1.00  0.00    -0.191 NA
ATOM      3  C   UNL     1      42.501  32.574  13.785  1.00  0.00    +0.202 A 
ATOM      4  N   UNL     1      41.925  32.246  14.954  1.00  0.00    -0.057 NA
ATOM      5  O   UNL     1      41.951  33.431  15.682  1.00  0.00    -0.339 OA
ENDROOT
BRANCH   1   6
ATOM      6  C   UNL     1      42.694  35.752  15.430  1.00  0.00    +0.102 C 
ATOM      7  C   UNL     1      42.036  35.802  16.815  1.00  0.00    +0.020 C 
BRANCH   6   8
ATOM      8  C   UNL     1      44.181  36.205  15.460  1.00  0.00    +0.153 C 
BRANCH   8   9
ATOM      9  N   UNL     1      44.928  35.860  14.223  1.00  0.00    -0.319 NA
ATOM     10  H   UNL     1      45.835  35.468  14.487  1.00  0.00    +0.119 HD
ATOM     11  H   UNL     1      44.441  35.137  13.699  1.00  0.00    +0.119 HD
ENDBRANCH   8   9
BRANCH   8  12
ATOM     12  C   UNL     1      44.924  35.540  16.651  1.00  0.00    +0.240 C 
ATOM     13  O   UNL     1      44.921  34.316  16.802  1.00  0.00    -0.273 OA
ATOM     14  N   UNL     1      45.628  36.366  17.503  1.00  0.00    -0.341 N 
ATOM     15  C   UNL     1      45.795  37.807  17.394  1.00  0.00    +0.119 C 
ATOM     16  C   UNL     1      46.407  35.826  18.602  1.00  0.00    +0.119 C 
ATOM     17  C   UNL     1      46.482  38.204  18.695  1.00  0.00    +0.023 C 
ATOM     18  C   UNL     1      47.312  36.972  19.030  1.00  0.00    +0.023 C 
ENDBRANCH   8  12
ENDBRANCH   6   8
ENDBRANCH   1   6
BRANCH   3  19
ATOM     19  C   UNL     1      42.706  31.638  12.684  1.00  0.00    +0.023 A 
ATOM     20  C   UNL     1      41.885  31.668  11.544  1.00  0.00    +0.013 A 
ATOM     21  C   UNL     1      43.741  30.689  12.749  1.00  0.00    +0.013 A 
ATOM     22  C   UNL     1      42.087  30.765  10.495  1.00  0.00    +0.021 A 
ATOM     23  C   UNL     1      43.950  29.785  11.704  1.00  0.00    +0.021 A 
ATOM     24  C   UNL     1      43.111  29.821  10.587  1.00  0.00    +0.067 A 
BRANCH  24  25
ATOM     25  S   UNL     1      43.380  28.678   9.254  1.00  0.00    +0.175 S 
ATOM     26  O   UNL     1      42.476  29.040   8.177  1.00  0.00    -0.224 OA
ATOM     27  O   UNL     1      44.811  28.599   9.028  1.00  0.00    -0.224 OA
ATOM     28  C   UNL     1      42.838  27.130   9.930  1.00  0.00    +0.163 C 
ENDBRANCH  24  25
ENDBRANCH   3  19
TORSDOF 6
ENDMDL
