MODEL 1
REMARK VINA RESULT:    -7.138      0.000      0.000
REMARK INTER + INTRA:          -9.661
REMARK INTER:                  -8.599
REMARK INTRA:                  -1.063
REMARK UNBOUND:                -1.063
REMARK SMILES Cn1c(=O)cc(N2CCC[C@@H](N)C2)n(Cc2ccccc2C#N)c1=O
REMARK SMILES IDX 1 1 2 2 3 3 4 4 5 5 6 6 14 7 24 8 25 9 15 10 16 11 17 12
REMARK SMILES IDX 21 13 18 14 20 15 22 16 19 17 23 18 7 19 8 20 13 21 9 22
REMARK SMILES IDX 11 23 10 24 12 25
REMARK H PARENT 12 26 12 27
ROOT
ATOM      1  C   UNL     1      43.937  28.985  10.753  1.00  0.00    +0.158 C 
ATOM      2  N   UNL     1      43.461  30.071  11.586  1.00  0.00    -0.263 N 
ATOM      3  C   UNL     1      42.471  30.887  11.093  1.00  0.00    +0.258 C 
ATOM      4  O   UNL     1      41.955  30.782   9.982  1.00  0.00    -0.269 OA
ATOM      5  C   UNL     1      42.017  31.957  11.983  1.00  0.00    +0.117 C 
ATOM      6  C   UNL     1      42.596  32.173  13.172  1.00  0.00    +0.118 C 
ATOM      7  N   UNL     1      43.657  31.364  13.555  1.00  0.00    -0.275 N 
ATOM      8  C   UNL     1      44.127  30.306  12.780  1.00  0.00    +0.332 C 
ATOM      9  O   UNL     1      45.096  29.621  13.117  1.00  0.00    -0.247 OA
ENDROOT
BRANCH   7  10
ATOM     10  C   UNL     1      44.344  31.624  14.828  1.00  0.00    +0.166 C 
BRANCH  10  11
ATOM     11  C   UNL     1      45.381  32.736  14.750  1.00  0.00    -0.010 A 
ATOM     12  C   UNL     1      46.426  32.649  13.812  1.00  0.00    +0.007 A 
ATOM     13  C   UNL     1      45.365  33.837  15.630  1.00  0.00    +0.057 A 
ATOM     14  C   UNL     1      47.403  33.643  13.722  1.00  0.00    +0.000 A 
ATOM     15  C   UNL     1      46.352  34.832  15.532  1.00  0.00    +0.020 A 
ATOM     16  C   UNL     1      44.364  33.986  16.648  1.00  0.00    +0.099 C 
ATOM     17  C   UNL     1      47.365  34.737  14.579  1.00  0.00    +0.001 A 
ATOM     18  N   UNL     1      43.566  34.119  17.480  1.00  0.00    -0.192 NA
ENDBRANCH  10  11
ENDBRANCH   7  10
BRANCH   6  19
ATOM     19  N   UNL     1      42.123  33.202  13.999  1.00  0.00    -0.356 N 
ATOM     20  C   UNL     1      42.264  34.608  13.574  1.00  0.00    +0.118 C 
ATOM     21  C   UNL     1      40.964  32.910  14.884  1.00  0.00    +0.136 C 
ATOM     22  C   UNL     1      40.905  35.251  13.336  1.00  0.00    +0.023 C 
ATOM     23  C   UNL     1      40.452  34.172  15.608  1.00  0.00    +0.070 C 
ATOM     24  C   UNL     1      40.033  35.248  14.594  1.00  0.00    +0.022 C 
BRANCH  23  25
ATOM     25  N   UNL     1      39.340  33.884  16.522  1.00  0.00    -0.326 NA
ATOM     26  H   UNL     1      39.699  33.426  17.360  1.00  0.00    +0.119 HD
ATOM     27  H   UNL     1      38.905  34.751  16.836  1.00  0.00    +0.119 HD
ENDBRANCH  23  25
ENDBRANCH   6  19
TORSDOF 4
ENDMDL
MODEL 2
REMARK VINA RESULT:    -6.861      2.821      5.707
REMARK INTER + INTRA:          -9.328
REMARK INTER:                  -8.661
REMARK INTRA:                  -0.667
REMARK UNBOUND:                -1.063
REMARK SMILES Cn1c(=O)cc(N2CCC[C@@H](N)C2)n(Cc2ccccc2C#N)c1=O
REMARK SMILES IDX 1 1 2 2 3 3 4 4 5 5 6 6 14 7 24 8 25 9 15 10 16 11 17 12
REMARK SMILES IDX 21 13 18 14 20 15 22 16 19 17 23 18 7 19 8 20 13 21 9 22
REMARK SMILES IDX 11 23 10 24 12 25
REMARK H PARENT 12 26 12 27
ROOT
ATOM      1  C   UNL     1      38.992  34.668  14.859  1.00  0.00    +0.158 C 
ATOM      2  N   UNL     1      40.383  34.616  15.265  1.00  0.00    -0.263 N 
ATOM      3  C   UNL     1      41.082  35.796  15.358  1.00  0.00    +0.258 C 
ATOM      4  O   UNL     1      40.626  36.910  15.109  1.00  0.00    -0.269 OA
ATOM      5  C   UNL     1      42.477  35.685  15.788  1.00  0.00    +0.117 C 
ATOM      6  C   UNL     1      43.054  34.494  15.995  1.00  0.00    +0.118 C 
ATOM      7  N   UNL     1      42.307  33.344  15.785  1.00  0.00    -0.275 N 
ATOM      8  C   UNL     1      40.966  33.365  15.406  1.00  0.00    +0.332 C 
ATOM      9  O   UNL     1      40.326  32.334  15.186  1.00  0.00    -0.247 OA
ENDROOT
BRANCH   7  10
ATOM     10  C   UNL     1      42.940  32.028  15.947  1.00  0.00    +0.166 C 
BRANCH  10  11
ATOM     11  C   UNL     1      43.025  31.223  14.658  1.00  0.00    -0.010 A 
ATOM     12  C   UNL     1      43.564  31.816  13.500  1.00  0.00    +0.007 A 
ATOM     13  C   UNL     1      42.529  29.907  14.562  1.00  0.00    +0.057 A 
ATOM     14  C   UNL     1      43.644  31.113  12.296  1.00  0.00    +0.000 A 
ATOM     15  C   UNL     1      42.614  29.207  13.347  1.00  0.00    +0.020 A 
ATOM     16  C   UNL     1      41.921  29.238  15.678  1.00  0.00    +0.099 C 
ATOM     17  C   UNL     1      43.173  29.807  12.220  1.00  0.00    +0.001 A 
ATOM     18  N   UNL     1      41.423  28.685  16.568  1.00  0.00    -0.192 NA
ENDBRANCH  10  11
ENDBRANCH   7  10
BRANCH   6  19
ATOM     19  N   UNL     1      44.390  34.433  16.417  1.00  0.00    -0.356 N 
ATOM     20  C   UNL     1      45.478  34.561  15.428  1.00  0.00    +0.118 C 
ATOM     21  C   UNL     1      44.711  34.902  17.791  1.00  0.00    +0.136 C 
ATOM     22  C   UNL     1      46.291  35.827  15.664  1.00  0.00    +0.023 C 
ATOM     23  C   UNL     1      46.230  34.931  18.057  1.00  0.00    +0.070 C 
ATOM     24  C   UNL     1      46.939  35.850  17.050  1.00  0.00    +0.022 C 
BRANCH  23  25
ATOM     25  N   UNL     1      46.553  35.343  19.428  1.00  0.00    -0.326 NA
ATOM     26  H   UNL     1      46.315  34.591  20.074  1.00  0.00    +0.119 HD
ATOM     27  H   UNL     1      47.557  35.495  19.526  1.00  0.00    +0.119 HD
ENDBRANCH  23  25
ENDBRANCH   6  19
TORSDOF 4
ENDMDL
MODEL 3
REMARK VINA RESULT:    -6.732      3.203      6.923
REMARK INTER + INTRA:          -9.172
REMARK INTER:                  -8.100
REMARK INTRA:                  -1.072
REMARK UNBOUND:                -1.063
REMARK SMILES Cn1c(=O)cc(N2CCC[C@@H](N)C2)n(Cc2ccccc2C#N)c1=O
REMARK SMILES IDX 1 1 2 2 3 3 4 4 5 5 6 6 14 7 24 8 25 9 15 10 16 11 17 12
REMARK SMILES IDX 21 13 18 14 20 15 22 16 19 17 23 18 7 19 8 20 13 21 9 22
REMARK SMILES IDX 11 23 10 24 12 25
REMARK H PARENT 12 26 12 27
ROOT
ATOM      1  C   UNL     1      42.271  33.719  15.407  1.00  0.00    +0.158 C 
ATOM      2  N   UNL     1      42.407  32.660  14.426  1.00  0.00    -0.263 N 
ATOM      3  C   UNL     1      42.056  32.925  13.125  1.00  0.00    +0.258 C 
ATOM      4  O   UNL     1      41.616  33.997  12.715  1.00  0.00    -0.269 OA
ATOM      5  C   UNL     1      42.231  31.824  12.175  1.00  0.00    +0.117 C 
ATOM      6  C   UNL     1      42.629  30.609  12.575  1.00  0.00    +0.118 C 
ATOM      7  N   UNL     1      42.870  30.396  13.925  1.00  0.00    -0.275 N 
ATOM      8  C   UNL     1      42.758  31.399  14.886  1.00  0.00    +0.332 C 
ATOM      9  O   UNL     1      42.938  31.184  16.088  1.00  0.00    -0.247 OA
ENDROOT
BRANCH   7  10
ATOM     10  C   UNL     1      43.248  29.055  14.391  1.00  0.00    +0.166 C 
BRANCH  10  11
ATOM     11  C   UNL     1      42.070  28.102  14.541  1.00  0.00    -0.010 A 
ATOM     12  C   UNL     1      40.989  28.456  15.370  1.00  0.00    +0.007 A 
ATOM     13  C   UNL     1      42.045  26.839  13.917  1.00  0.00    +0.057 A 
ATOM     14  C   UNL     1      39.899  27.601  15.543  1.00  0.00    +0.000 A 
ATOM     15  C   UNL     1      40.944  25.985  14.096  1.00  0.00    +0.020 A 
ATOM     16  C   UNL     1      43.124  26.374  13.091  1.00  0.00    +0.099 C 
ATOM     17  C   UNL     1      39.873  26.366  14.903  1.00  0.00    +0.001 A 
ATOM     18  N   UNL     1      43.989  25.981  12.424  1.00  0.00    -0.192 NA
ENDBRANCH  10  11
ENDBRANCH   7  10
BRANCH   6  19
ATOM     19  N   UNL     1      42.794  29.586  11.630  1.00  0.00    -0.356 N 
ATOM     20  C   UNL     1      41.626  29.089  10.877  1.00  0.00    +0.118 C 
ATOM     21  C   UNL     1      44.102  29.484  10.931  1.00  0.00    +0.136 C 
ATOM     22  C   UNL     1      41.757  29.397   9.392  1.00  0.00    +0.023 C 
ATOM     23  C   UNL     1      44.083  28.425   9.810  1.00  0.00    +0.070 C 
ATOM     24  C   UNL     1      42.999  28.753   8.772  1.00  0.00    +0.022 C 
BRANCH  23  25
ATOM     25  N   UNL     1      45.385  28.282   9.149  1.00  0.00    -0.326 NA
ATOM     26  H   UNL     1      46.082  28.834   9.648  1.00  0.00    +0.119 HD
ATOM     27  H   UNL     1      45.703  27.314   9.195  1.00  0.00    +0.119 HD
ENDBRANCH  23  25
ENDBRANCH   6  19
TORSDOF 4
ENDMDL
MODEL 4
REMARK VINA RESULT:    -6.722      2.979      6.005
REMARK INTER + INTRA:          -9.160
REMARK INTER:                  -8.356
REMARK INTRA:                  -0.805
REMARK UNBOUND:                -1.063
REMARK SMILES Cn1c(=O)cc(N2CCC[C@@H](N)C2)n(Cc2ccccc2C#N)c1=O
REMARK SMILES IDX 1 1 2 2 3 3 4 4 5 5 6 6 14 7 24 8 25 9 15 10 16 11 17 12
REMARK SMILES IDX 21 13 18 14 20 15 22 16 19 17 23 18 7 19 8 20 13 21 9 22
REMARK SMILES IDX 11 23 10 24 12 25
REMARK H PARENT 12 26 12 27
ROOT
ATOM      1  C   UNL     1      47.961  32.516  12.566  1.00  0.00    +0.158 C 
ATOM      2  N   UNL     1      47.613  33.332  13.713  1.00  0.00    -0.263 N 
ATOM      3  C   UNL     1      48.569  34.171  14.231  1.00  0.00    +0.258 C 
ATOM      4  O   UNL     1      49.718  34.283  13.809  1.00  0.00    -0.269 OA
ATOM      5  C   UNL     1      48.158  34.983  15.378  1.00  0.00    +0.117 C 
ATOM      6  C   UNL     1      46.946  34.848  15.935  1.00  0.00    +0.118 C 
ATOM      7  N   UNL     1      46.072  33.906  15.411  1.00  0.00    -0.275 N 
ATOM      8  C   UNL     1      46.376  33.118  14.303  1.00  0.00    +0.332 C 
ATOM      9  O   UNL     1      45.603  32.258  13.873  1.00  0.00    -0.247 OA
ENDROOT
BRANCH   7  10
ATOM     10  C   UNL     1      44.763  33.700  16.046  1.00  0.00    +0.166 C 
BRANCH  10  11
ATOM     11  C   UNL     1      43.585  34.103  15.171  1.00  0.00    -0.010 A 
ATOM     12  C   UNL     1      43.511  35.413  14.661  1.00  0.00    +0.007 A 
ATOM     13  C   UNL     1      42.523  33.219  14.891  1.00  0.00    +0.057 A 
ATOM     14  C   UNL     1      42.438  35.822  13.867  1.00  0.00    +0.000 A 
ATOM     15  C   UNL     1      41.447  33.639  14.091  1.00  0.00    +0.020 A 
ATOM     16  C   UNL     1      42.491  31.879  15.406  1.00  0.00    +0.099 C 
ATOM     17  C   UNL     1      41.407  34.934  13.578  1.00  0.00    +0.001 A 
ATOM     18  N   UNL     1      42.446  30.795  15.817  1.00  0.00    -0.192 NA
ENDBRANCH  10  11
ENDBRANCH   7  10
BRANCH   6  19
ATOM     19  N   UNL     1      46.589  35.654  17.025  1.00  0.00    -0.356 N 
ATOM     20  C   UNL     1      47.241  35.449  18.333  1.00  0.00    +0.118 C 
ATOM     21  C   UNL     1      46.122  37.038  16.748  1.00  0.00    +0.136 C 
ATOM     22  C   UNL     1      48.075  36.660  18.728  1.00  0.00    +0.023 C 
ATOM     23  C   UNL     1      45.923  37.855  18.041  1.00  0.00    +0.070 C 
ATOM     24  C   UNL     1      47.233  37.933  18.841  1.00  0.00    +0.022 C 
BRANCH  23  25
ATOM     25  N   UNL     1      45.414  39.207  17.779  1.00  0.00    -0.326 NA
ATOM     26  H   UNL     1      45.753  39.843  18.500  1.00  0.00    +0.119 HD
ATOM     27  H   UNL     1      45.780  39.559  16.894  1.00  0.00    +0.119 HD
ENDBRANCH  23  25
ENDBRANCH   6  19
TORSDOF 4
ENDMDL
MODEL 5
REMARK VINA RESULT:    -5.916      3.138      5.666
REMARK INTER + INTRA:          -8.189
REMARK INTER:                  -7.217
REMARK INTRA:                  -0.972
REMARK UNBOUND:                -1.063
REMARK SMILES Cn1c(=O)cc(N2CCC[C@@H](N)C2)n(Cc2ccccc2C#N)c1=O
REMARK SMILES IDX 1 1 2 2 3 3 4 4 5 5 6 6 14 7 24 8 25 9 15 10 16 11 17 12
REMARK SMILES IDX 21 13 18 14 20 15 22 16 19 17 23 18 7 19 8 20 13 21 9 22
REMARK SMILES IDX 11 23 10 24 12 25
REMARK H PARENT 12 26 12 27
ROOT
ATOM      1  C   UNL     1      40.319  35.214  14.576  1.00  0.00    +0.158 C 
ATOM      2  N   UNL     1      41.641  34.708  14.890  1.00  0.00    -0.263 N 
ATOM      3  C   UNL     1      42.292  33.949  13.947  1.00  0.00    +0.258 C 
ATOM      4  O   UNL     1      41.837  33.646  12.846  1.00  0.00    -0.269 OA
ATOM      5  C   UNL     1      43.629  33.479  14.311  1.00  0.00    +0.117 C 
ATOM      6  C   UNL     1      44.147  33.709  15.526  1.00  0.00    +0.118 C 
ATOM      7  N   UNL     1      43.385  34.400  16.456  1.00  0.00    -0.275 N 
ATOM      8  C   UNL     1      42.117  34.907  16.178  1.00  0.00    +0.332 C 
ATOM      9  O   UNL     1      41.436  35.486  17.028  1.00  0.00    -0.247 OA
ENDROOT
BRANCH   7  10
ATOM     10  C   UNL     1      43.910  34.607  17.813  1.00  0.00    +0.166 C 
BRANCH  10  11
ATOM     11  C   UNL     1      44.995  35.671  17.897  1.00  0.00    -0.010 A 
ATOM     12  C   UNL     1      44.844  36.878  17.188  1.00  0.00    +0.007 A 
ATOM     13  C   UNL     1      46.187  35.470  18.622  1.00  0.00    +0.057 A 
ATOM     14  C   UNL     1      45.825  37.870  17.230  1.00  0.00    +0.000 A 
ATOM     15  C   UNL     1      47.169  36.474  18.659  1.00  0.00    +0.020 A 
ATOM     16  C   UNL     1      46.448  34.253  19.337  1.00  0.00    +0.099 C 
ATOM     17  C   UNL     1      46.986  37.671  17.968  1.00  0.00    +0.001 A 
ATOM     18  N   UNL     1      46.678  33.274  19.917  1.00  0.00    -0.192 NA
ENDBRANCH  10  11
ENDBRANCH   7  10
BRANCH   6  19
ATOM     19  N   UNL     1      45.437  33.250  15.829  1.00  0.00    -0.356 N 
ATOM     20  C   UNL     1      45.634  31.856  16.272  1.00  0.00    +0.118 C 
ATOM     21  C   UNL     1      46.585  33.867  15.112  1.00  0.00    +0.136 C 
ATOM     22  C   UNL     1      46.452  31.067  15.258  1.00  0.00    +0.023 C 
ATOM     23  C   UNL     1      47.917  33.155  15.424  1.00  0.00    +0.070 C 
ATOM     24  C   UNL     1      47.842  31.670  15.038  1.00  0.00    +0.022 C 
BRANCH  23  25
ATOM     25  N   UNL     1      49.062  33.789  14.761  1.00  0.00    -0.326 NA
ATOM     26  H   UNL     1      48.968  34.803  14.816  1.00  0.00    +0.119 HD
ATOM     27  H   UNL     1      49.928  33.557  15.248  1.00  0.00    +0.119 HD
ENDBRANCH  23  25
ENDBRANCH   6  19
TORSDOF 4
ENDMDL
