MODEL 1
REMARK VINA RESULT:    -7.948      0.000      0.000
REMARK INTER + INTRA:          -8.671
REMARK INTER:                  -8.413
REMARK INTRA:                  -0.259
REMARK UNBOUND:                -0.259
REMARK SMILES O=c1cc(-c2ccccc2)oc2ccccc12
REMARK SMILES IDX 1 1 2 2 3 3 4 4 11 5 12 6 13 7 14 8 15 9 16 10 17 11 5 12
REMARK SMILES IDX 6 13 10 14 7 15 9 16 8 17
REMARK H PARENT
ROOT
ATOM      1  O   UNL     1      43.272  50.257  38.646  1.00  0.00    -0.289 OA
ATOM      2  C   UNL     1      42.610  50.199  37.617  1.00  0.00    +0.193 C 
ATOM      3  C   UNL     1      41.238  49.661  37.629  1.00  0.00    +0.100 C 
ATOM      4  C   UNL     1      40.527  49.606  36.491  1.00  0.00    +0.138 C 
ATOM      5  O   UNL     1      41.030  50.041  35.267  1.00  0.00    -0.456 OA
ATOM      6  C   UNL     1      42.302  50.549  35.208  1.00  0.00    +0.138 A 
ATOM      7  C   UNL     1      42.763  50.972  33.961  1.00  0.00    +0.048 A 
ATOM      8  C   UNL     1      44.050  51.499  33.838  1.00  0.00    +0.004 A 
ATOM      9  C   UNL     1      44.877  51.602  34.959  1.00  0.00    +0.001 A 
ATOM     10  C   UNL     1      44.416  51.179  36.206  1.00  0.00    +0.016 A 
ATOM     11  C   UNL     1      43.127  50.654  36.322  1.00  0.00    +0.065 A 
ENDROOT
BRANCH   4  12
ATOM     12  C   UNL     1      39.134  49.077  36.416  1.00  0.00    +0.017 A 
ATOM     13  C   UNL     1      38.181  49.557  35.500  1.00  0.00    +0.012 A 
ATOM     14  C   UNL     1      38.722  48.050  37.287  1.00  0.00    +0.012 A 
ATOM     15  C   UNL     1      36.882  49.038  35.457  1.00  0.00    +0.001 A 
ATOM     16  C   UNL     1      37.424  47.529  37.246  1.00  0.00    +0.001 A 
ATOM     17  C   UNL     1      36.503  48.024  36.329  1.00  0.00    +0.000 A 
ENDBRANCH   4  12
TORSDOF 1
ENDMDL
MODEL 2
REMARK VINA RESULT:    -7.061      4.771      6.898
REMARK INTER + INTRA:          -7.732
REMARK INTER:                  -7.482
REMARK INTRA:                  -0.250
REMARK UNBOUND:                -0.259
REMARK SMILES O=c1cc(-c2ccccc2)oc2ccccc12
REMARK SMILES IDX 1 1 2 2 3 3 4 4 11 5 12 6 13 7 14 8 15 9 16 10 17 11 5 12
REMARK SMILES IDX 6 13 10 14 7 15 9 16 8 17
REMARK H PARENT
ROOT
ATOM      1  O   UNL     1      38.321  52.037  39.096  1.00  0.00    -0.289 OA
ATOM      2  C   UNL     1      38.021  50.880  39.367  1.00  0.00    +0.193 C 
ATOM      3  C   UNL     1      38.021  50.405  40.761  1.00  0.00    +0.100 C 
ATOM      4  C   UNL     1      37.688  49.134  41.039  1.00  0.00    +0.138 C 
ATOM      5  O   UNL     1      37.336  48.215  40.052  1.00  0.00    -0.456 OA
ATOM      6  C   UNL     1      37.322  48.613  38.741  1.00  0.00    +0.138 A 
ATOM      7  C   UNL     1      36.963  47.659  37.788  1.00  0.00    +0.048 A 
ATOM      8  C   UNL     1      36.931  48.005  36.436  1.00  0.00    +0.004 A 
ATOM      9  C   UNL     1      37.258  49.302  36.035  1.00  0.00    +0.001 A 
ATOM     10  C   UNL     1      37.618  50.256  36.987  1.00  0.00    +0.016 A 
ATOM     11  C   UNL     1      37.647  49.904  38.339  1.00  0.00    +0.065 A 
ENDROOT
BRANCH   4  12
ATOM     12  C   UNL     1      37.663  48.573  42.421  1.00  0.00    +0.017 A 
ATOM     13  C   UNL     1      38.679  48.812  43.363  1.00  0.00    +0.012 A 
ATOM     14  C   UNL     1      36.587  47.764  42.834  1.00  0.00    +0.012 A 
ATOM     15  C   UNL     1      38.624  48.270  44.652  1.00  0.00    +0.001 A 
ATOM     16  C   UNL     1      36.529  47.220  44.122  1.00  0.00    +0.001 A 
ATOM     17  C   UNL     1      37.548  47.474  45.032  1.00  0.00    +0.000 A 
ENDBRANCH   4  12
TORSDOF 1
ENDMDL
MODEL 3
REMARK VINA RESULT:    -6.443      8.343     10.072
REMARK INTER + INTRA:          -7.078
REMARK INTER:                  -6.814
REMARK INTRA:                  -0.264
REMARK UNBOUND:                -0.259
REMARK SMILES O=c1cc(-c2ccccc2)oc2ccccc12
REMARK SMILES IDX 1 1 2 2 3 3 4 4 11 5 12 6 13 7 14 8 15 9 16 10 17 11 5 12
REMARK SMILES IDX 6 13 10 14 7 15 9 16 8 17
REMARK H PARENT
ROOT
ATOM      1  O   UNL     1      37.022  53.105  40.690  1.00  0.00    -0.289 OA
ATOM      2  C   UNL     1      36.637  52.365  41.586  1.00  0.00    +0.193 C 
ATOM      3  C   UNL     1      36.056  52.913  42.824  1.00  0.00    +0.100 C 
ATOM      4  C   UNL     1      35.638  52.085  43.795  1.00  0.00    +0.138 C 
ATOM      5  O   UNL     1      35.729  50.698  43.694  1.00  0.00    -0.456 OA
ATOM      6  C   UNL     1      36.263  50.143  42.560  1.00  0.00    +0.138 A 
ATOM      7  C   UNL     1      36.333  48.751  42.503  1.00  0.00    +0.048 A 
ATOM      8  C   UNL     1      36.867  48.128  41.374  1.00  0.00    +0.004 A 
ATOM      9  C   UNL     1      37.332  48.894  40.302  1.00  0.00    +0.001 A 
ATOM     10  C   UNL     1      37.262  50.286  40.359  1.00  0.00    +0.016 A 
ATOM     11  C   UNL     1      36.725  50.903  41.492  1.00  0.00    +0.065 A 
ENDROOT
BRANCH   4  12
ATOM     12  C   UNL     1      35.038  52.557  45.078  1.00  0.00    +0.017 A 
ATOM     13  C   UNL     1      35.025  51.778  46.249  1.00  0.00    +0.012 A 
ATOM     14  C   UNL     1      34.452  53.835  45.153  1.00  0.00    +0.012 A 
ATOM     15  C   UNL     1      34.453  52.252  47.435  1.00  0.00    +0.001 A 
ATOM     16  C   UNL     1      33.880  54.311  46.338  1.00  0.00    +0.001 A 
ATOM     17  C   UNL     1      33.881  53.519  47.480  1.00  0.00    +0.000 A 
ENDBRANCH   4  12
TORSDOF 1
ENDMDL
MODEL 4
REMARK VINA RESULT:    -6.192      7.240      8.970
REMARK INTER + INTRA:          -6.812
REMARK INTER:                  -6.543
REMARK INTRA:                  -0.269
REMARK UNBOUND:                -0.259
REMARK SMILES O=c1cc(-c2ccccc2)oc2ccccc12
REMARK SMILES IDX 1 1 2 2 3 3 4 4 11 5 12 6 13 7 14 8 15 9 16 10 17 11 5 12
REMARK SMILES IDX 6 13 10 14 7 15 9 16 8 17
REMARK H PARENT
ROOT
ATOM      1  O   UNL     1      36.534  53.306  40.699  1.00  0.00    -0.289 OA
ATOM      2  C   UNL     1      36.496  52.207  41.238  1.00  0.00    +0.193 C 
ATOM      3  C   UNL     1      36.049  52.063  42.634  1.00  0.00    +0.100 C 
ATOM      4  C   UNL     1      36.012  50.850  43.207  1.00  0.00    +0.138 C 
ATOM      5  O   UNL     1      36.385  49.688  42.535  1.00  0.00    -0.456 OA
ATOM      6  C   UNL     1      36.808  49.773  41.234  1.00  0.00    +0.138 A 
ATOM      7  C   UNL     1      37.170  48.584  40.601  1.00  0.00    +0.048 A 
ATOM      8  C   UNL     1      37.609  48.607  39.275  1.00  0.00    +0.004 A 
ATOM      9  C   UNL     1      37.685  49.817  38.582  1.00  0.00    +0.001 A 
ATOM     10  C   UNL     1      37.322  51.007  39.215  1.00  0.00    +0.016 A 
ATOM     11  C   UNL     1      36.884  50.976  40.541  1.00  0.00    +0.065 A 
ENDROOT
BRANCH   4  12
ATOM     12  C   UNL     1      35.574  50.617  44.615  1.00  0.00    +0.017 A 
ATOM     13  C   UNL     1      35.696  49.372  45.258  1.00  0.00    +0.012 A 
ATOM     14  C   UNL     1      35.008  51.669  45.360  1.00  0.00    +0.012 A 
ATOM     15  C   UNL     1      35.274  49.189  46.580  1.00  0.00    +0.001 A 
ATOM     16  C   UNL     1      34.585  51.488  46.681  1.00  0.00    +0.001 A 
ATOM     17  C   UNL     1      34.718  50.247  47.292  1.00  0.00    +0.000 A 
ENDBRANCH   4  12
TORSDOF 1
ENDMDL
