MODEL 1
REMARK VINA RESULT:    -9.049      0.000      0.000
REMARK INTER + INTRA:         -11.639
REMARK INTER:                 -10.900
REMARK INTRA:                  -0.739
REMARK UNBOUND:                -0.739
REMARK SMILES N[C@H]1CN(C(=O)c2cnc3ccccc3n2)C[C@H]1C(=O)N1CCCC1
REMARK SMILES IDX 2 1 3 2 4 3 17 4 18 5 1 6 19 9 20 10 21 11 22 12 25 13 23 14
REMARK SMILES IDX 24 15 5 16 6 17 7 18 8 19 16 20 9 21 15 22 10 23 14 24 11 25
REMARK SMILES IDX 13 26 12 27
REMARK H PARENT 1 7 1 8
ROOT
ATOM      1  C   UNL     1      44.742  34.927  18.137  1.00  0.00    +0.084 C 
ATOM      2  C   UNL     1      44.094  33.850  17.233  1.00  0.00    +0.139 C 
ATOM      3  N   UNL     1      44.114  34.409  15.882  1.00  0.00    -0.335 N 
ATOM      4  C   UNL     1      44.887  35.644  15.844  1.00  0.00    +0.135 C 
ATOM      5  C   UNL     1      45.677  35.623  17.139  1.00  0.00    +0.116 C 
ENDROOT
BRANCH   1   6
ATOM      6  N   UNL     1      43.722  35.800  18.738  1.00  0.00    -0.325 NA
ATOM      7  H   UNL     1      43.797  36.732  18.327  1.00  0.00    +0.119 HD
ATOM      8  H   UNL     1      43.918  35.918  19.732  1.00  0.00    +0.119 HD
ENDBRANCH   1   6
BRANCH   5   9
ATOM      9  C   UNL     1      46.392  36.862  17.650  1.00  0.00    +0.229 C 
ATOM     10  O   UNL     1      45.762  37.930  17.625  1.00  0.00    -0.274 OA
ATOM     11  N   UNL     1      47.699  36.861  18.064  1.00  0.00    -0.342 N 
ATOM     12  C   UNL     1      48.309  38.103  18.523  1.00  0.00    +0.119 C 
ATOM     13  C   UNL     1      48.658  35.767  18.144  1.00  0.00    +0.119 C 
ATOM     14  C   UNL     1      49.633  37.688  19.146  1.00  0.00    +0.023 C 
ATOM     15  C   UNL     1      50.004  36.451  18.345  1.00  0.00    +0.023 C 
ENDBRANCH   5   9
BRANCH   3  16
ATOM     16  C   UNL     1      43.405  33.985  14.769  1.00  0.00    +0.274 C 
ATOM     17  O   UNL     1      43.952  33.324  13.881  1.00  0.00    -0.267 OA
BRANCH  16  18
ATOM     18  C   UNL     1      41.956  34.312  14.612  1.00  0.00    +0.147 A 
ATOM     19  C   UNL     1      41.026  33.569  15.319  1.00  0.00    +0.146 A 
ATOM     20  N   UNL     1      41.580  35.346  13.815  1.00  0.00    -0.239 NA
ATOM     21  N   UNL     1      39.692  33.809  15.252  1.00  0.00    -0.252 NA
ATOM     22  C   UNL     1      40.259  35.601  13.742  1.00  0.00    +0.090 A 
ATOM     23  C   UNL     1      39.309  34.829  14.460  1.00  0.00    +0.089 A 
ATOM     24  C   UNL     1      39.810  36.645  12.943  1.00  0.00    +0.030 A 
ATOM     25  C   UNL     1      37.959  35.137  14.344  1.00  0.00    +0.030 A 
ATOM     26  C   UNL     1      38.451  36.946  12.834  1.00  0.00    +0.002 A 
ATOM     27  C   UNL     1      37.522  36.189  13.536  1.00  0.00    +0.002 A 
ENDBRANCH  16  18
ENDBRANCH   3  16
TORSDOF 4
ENDMDL
MODEL 2
REMARK VINA RESULT:    -8.522      1.769      2.618
REMARK INTER + INTRA:         -11.004
REMARK INTER:                 -10.395
REMARK INTRA:                  -0.609
REMARK UNBOUND:                -0.739
REMARK SMILES N[C@H]1CN(C(=O)c2cnc3ccccc3n2)C[C@H]1C(=O)N1CCCC1
REMARK SMILES IDX 2 1 3 2 4 3 17 4 18 5 1 6 19 9 20 10 21 11 22 12 25 13 23 14
REMARK SMILES IDX 24 15 5 16 6 17 7 18 8 19 16 20 9 21 15 22 10 23 14 24 11 25
REMARK SMILES IDX 13 26 12 27
REMARK H PARENT 1 7 1 8
ROOT
ATOM      1  C   UNL     1      45.885  32.492  16.962  1.00  0.00    +0.084 C 
ATOM      2  C   UNL     1      44.876  31.998  15.897  1.00  0.00    +0.139 C 
ATOM      3  N   UNL     1      43.679  32.816  16.084  1.00  0.00    -0.335 N 
ATOM      4  C   UNL     1      43.930  33.893  17.034  1.00  0.00    +0.135 C 
ATOM      5  C   UNL     1      45.442  33.952  17.130  1.00  0.00    +0.116 C 
ENDROOT
BRANCH   1   6
ATOM      6  N   UNL     1      45.809  31.679  18.185  1.00  0.00    -0.325 NA
ATOM      7  H   UNL     1      46.713  31.231  18.345  1.00  0.00    +0.119 HD
ATOM      8  H   UNL     1      45.143  30.920  18.048  1.00  0.00    +0.119 HD
ENDBRANCH   1   6
BRANCH   5   9
ATOM      9  C   UNL     1      46.134  34.734  18.234  1.00  0.00    +0.229 C 
ATOM     10  O   UNL     1      46.492  34.100  19.238  1.00  0.00    -0.274 OA
ATOM     11  N   UNL     1      46.314  36.093  18.195  1.00  0.00    -0.342 N 
ATOM     12  C   UNL     1      46.974  36.763  19.309  1.00  0.00    +0.119 C 
ATOM     13  C   UNL     1      45.948  37.060  17.170  1.00  0.00    +0.119 C 
ATOM     14  C   UNL     1      47.242  38.177  18.820  1.00  0.00    +0.023 C 
ATOM     15  C   UNL     1      46.095  38.415  17.849  1.00  0.00    +0.023 C 
ENDBRANCH   5   9
BRANCH   3  16
ATOM     16  C   UNL     1      42.402  32.590  15.594  1.00  0.00    +0.274 C 
ATOM     17  O   UNL     1      41.852  31.494  15.735  1.00  0.00    -0.267 OA
BRANCH  16  18
ATOM     18  C   UNL     1      41.652  33.668  14.882  1.00  0.00    +0.147 A 
ATOM     19  C   UNL     1      42.334  34.467  13.979  1.00  0.00    +0.146 A 
ATOM     20  N   UNL     1      40.321  33.823  15.101  1.00  0.00    -0.239 NA
ATOM     21  N   UNL     1      41.729  35.457  13.275  1.00  0.00    -0.252 NA
ATOM     22  C   UNL     1      39.704  34.798  14.405  1.00  0.00    +0.090 A 
ATOM     23  C   UNL     1      40.410  35.621  13.489  1.00  0.00    +0.089 A 
ATOM     24  C   UNL     1      38.343  35.007  14.586  1.00  0.00    +0.030 A 
ATOM     25  C   UNL     1      39.721  36.612  12.801  1.00  0.00    +0.030 A 
ATOM     26  C   UNL     1      37.661  36.007  13.888  1.00  0.00    +0.002 A 
ATOM     27  C   UNL     1      38.353  36.812  12.993  1.00  0.00    +0.002 A 
ENDBRANCH  16  18
ENDBRANCH   3  16
TORSDOF 4
ENDMDL
MODEL 3
REMARK VINA RESULT:    -8.485      1.623      1.855
REMARK INTER + INTRA:         -10.960
REMARK INTER:                 -10.224
REMARK INTRA:                  -0.736
REMARK UNBOUND:                -0.739
REMARK SMILES N[C@H]1CN(C(=O)c2cnc3ccccc3n2)C[C@H]1C(=O)N1CCCC1
REMARK SMILES IDX 2 1 3 2 4 3 17 4 18 5 1 6 19 9 20 10 21 11 22 12 25 13 23 14
REMARK SMILES IDX 24 15 5 16 6 17 7 18 8 19 16 20 9 21 15 22 10 23 14 24 11 25
REMARK SMILES IDX 13 26 12 27
REMARK H PARENT 1 7 1 8
ROOT
ATOM      1  C   UNL     1      44.724  36.122  17.628  1.00  0.00    +0.084 C 
ATOM      2  C   UNL     1      43.365  35.383  17.560  1.00  0.00    +0.139 C 
ATOM      3  N   UNL     1      43.600  34.211  16.717  1.00  0.00    -0.335 N 
ATOM      4  C   UNL     1      45.019  34.061  16.422  1.00  0.00    +0.135 C 
ATOM      5  C   UNL     1      45.702  34.955  17.439  1.00  0.00    +0.116 C 
ENDROOT
BRANCH   1   6
ATOM      6  N   UNL     1      44.810  37.172  16.602  1.00  0.00    -0.325 NA
ATOM      7  H   UNL     1      44.987  36.738  15.695  1.00  0.00    +0.119 HD
ATOM      8  H   UNL     1      45.618  37.765  16.789  1.00  0.00    +0.119 HD
ENDBRANCH   1   6
BRANCH   5   9
ATOM      9  C   UNL     1      47.168  35.331  17.303  1.00  0.00    +0.229 C 
ATOM     10  O   UNL     1      47.455  36.195  16.460  1.00  0.00    -0.274 OA
ATOM     11  N   UNL     1      48.171  34.719  18.010  1.00  0.00    -0.342 N 
ATOM     12  C   UNL     1      49.553  35.134  17.802  1.00  0.00    +0.119 C 
ATOM     13  C   UNL     1      48.106  33.661  19.008  1.00  0.00    +0.119 C 
ATOM     14  C   UNL     1      50.342  34.461  18.914  1.00  0.00    +0.023 C 
ATOM     15  C   UNL     1      49.546  33.189  19.162  1.00  0.00    +0.023 C 
ENDBRANCH   5   9
BRANCH   3  16
ATOM     16  C   UNL     1      42.661  33.391  16.110  1.00  0.00    +0.274 C 
ATOM     17  O   UNL     1      42.851  32.176  16.006  1.00  0.00    -0.267 OA
BRANCH  16  18
ATOM     18  C   UNL     1      41.390  33.955  15.565  1.00  0.00    +0.147 A 
ATOM     19  C   UNL     1      40.187  33.516  16.093  1.00  0.00    +0.146 A 
ATOM     20  N   UNL     1      41.433  34.905  14.595  1.00  0.00    -0.239 NA
ATOM     21  N   UNL     1      38.986  33.987  15.672  1.00  0.00    -0.252 NA
ATOM     22  C   UNL     1      40.248  35.388  14.170  1.00  0.00    +0.090 A 
ATOM     23  C   UNL     1      39.019  34.926  14.708  1.00  0.00    +0.089 A 
ATOM     24  C   UNL     1      40.226  36.361  13.179  1.00  0.00    +0.030 A 
ATOM     25  C   UNL     1      37.829  35.458  14.228  1.00  0.00    +0.030 A 
ATOM     26  C   UNL     1      39.023  36.889  12.706  1.00  0.00    +0.002 A 
ATOM     27  C   UNL     1      37.820  36.436  13.232  1.00  0.00    +0.002 A 
ENDBRANCH  16  18
ENDBRANCH   3  16
TORSDOF 4
ENDMDL
MODEL 4
REMARK VINA RESULT:    -8.299      1.695      8.439
REMARK INTER + INTRA:         -10.736
REMARK INTER:                 -10.608
REMARK INTRA:                  -0.128
REMARK UNBOUND:                -0.739
REMARK SMILES N[C@H]1CN(C(=O)c2cnc3ccccc3n2)C[C@H]1C(=O)N1CCCC1
REMARK SMILES IDX 2 1 3 2 4 3 17 4 18 5 1 6 19 9 20 10 21 11 22 12 25 13 23 14
REMARK SMILES IDX 24 15 5 16 6 17 7 18 8 19 16 20 9 21 15 22 10 23 14 24 11 25
REMARK SMILES IDX 13 26 12 27
REMARK H PARENT 1 7 1 8
ROOT
ATOM      1  C   UNL     1      42.254  36.194  16.272  1.00  0.00    +0.084 C 
ATOM      2  C   UNL     1      43.798  36.182  16.387  1.00  0.00    +0.139 C 
ATOM      3  N   UNL     1      44.189  34.779  16.257  1.00  0.00    -0.335 N 
ATOM      4  C   UNL     1      43.047  33.956  15.881  1.00  0.00    +0.135 C 
ATOM      5  C   UNL     1      42.016  34.957  15.395  1.00  0.00    +0.116 C 
ENDROOT
BRANCH   1   6
ATOM      6  N   UNL     1      41.622  36.140  17.599  1.00  0.00    -0.325 NA
ATOM      7  H   UNL     1      41.266  35.197  17.761  1.00  0.00    +0.119 HD
ATOM      8  H   UNL     1      40.806  36.751  17.612  1.00  0.00    +0.119 HD
ENDBRANCH   1   6
BRANCH   5   9
ATOM      9  C   UNL     1      40.565  34.559  15.186  1.00  0.00    +0.229 C 
ATOM     10  O   UNL     1      40.207  33.462  15.640  1.00  0.00    -0.274 OA
ATOM     11  N   UNL     1      39.673  35.316  14.471  1.00  0.00    -0.342 N 
ATOM     12  C   UNL     1      38.302  34.847  14.306  1.00  0.00    +0.119 C 
ATOM     13  C   UNL     1      39.851  36.599  13.805  1.00  0.00    +0.119 C 
ATOM     14  C   UNL     1      37.546  36.028  13.718  1.00  0.00    +0.023 C 
ATOM     15  C   UNL     1      38.622  36.745  12.917  1.00  0.00    +0.023 C 
ENDBRANCH   5   9
BRANCH   3  16
ATOM     16  C   UNL     1      45.407  34.197  16.574  1.00  0.00    +0.274 C 
ATOM     17  O   UNL     1      45.575  32.979  16.467  1.00  0.00    -0.267 OA
BRANCH  16  18
ATOM     18  C   UNL     1      46.552  35.027  17.053  1.00  0.00    +0.147 A 
ATOM     19  C   UNL     1      47.784  34.881  16.435  1.00  0.00    +0.146 A 
ATOM     20  N   UNL     1      46.362  35.929  18.050  1.00  0.00    -0.239 NA
ATOM     21  N   UNL     1      48.873  35.607  16.792  1.00  0.00    -0.252 NA
ATOM     22  C   UNL     1      47.434  36.662  18.412  1.00  0.00    +0.090 A 
ATOM     23  C   UNL     1      48.696  36.500  17.784  1.00  0.00    +0.089 A 
ATOM     24  C   UNL     1      47.304  37.601  19.428  1.00  0.00    +0.030 A 
ATOM     25  C   UNL     1      49.765  37.283  18.201  1.00  0.00    +0.030 A 
ATOM     26  C   UNL     1      48.386  38.383  19.839  1.00  0.00    +0.002 A 
ATOM     27  C   UNL     1      49.621  38.223  19.224  1.00  0.00    +0.002 A 
ENDBRANCH  16  18
ENDBRANCH   3  16
TORSDOF 4
ENDMDL
MODEL 5
REMARK VINA RESULT:    -8.188      4.297      6.938
REMARK INTER + INTRA:         -10.602
REMARK INTER:                  -9.865
REMARK INTRA:                  -0.738
REMARK UNBOUND:                -0.739
REMARK SMILES N[C@H]1CN(C(=O)c2cnc3ccccc3n2)C[C@H]1C(=O)N1CCCC1
REMARK SMILES IDX 2 1 3 2 4 3 17 4 18 5 1 6 19 9 20 10 21 11 22 12 25 13 23 14
REMARK SMILES IDX 24 15 5 16 6 17 7 18 8 19 16 20 9 21 15 22 10 23 14 24 11 25
REMARK SMILES IDX 13 26 12 27
REMARK H PARENT 1 7 1 8
ROOT
ATOM      1  C   UNL     1      44.196  30.124  14.661  1.00  0.00    +0.084 C 
ATOM      2  C   UNL     1      43.422  30.971  15.701  1.00  0.00    +0.139 C 
ATOM      3  N   UNL     1      43.059  32.206  15.007  1.00  0.00    -0.335 N 
ATOM      4  C   UNL     1      43.369  32.112  13.586  1.00  0.00    +0.135 C 
ATOM      5  C   UNL     1      43.573  30.627  13.352  1.00  0.00    +0.116 C 
ENDROOT
BRANCH   1   6
ATOM      6  N   UNL     1      45.646  30.336  14.776  1.00  0.00    -0.325 NA
ATOM      7  H   UNL     1      46.132  29.620  14.233  1.00  0.00    +0.119 HD
ATOM      8  H   UNL     1      45.936  30.196  15.743  1.00  0.00    +0.119 HD
ENDBRANCH   1   6
BRANCH   5   9
ATOM      9  C   UNL     1      44.205  30.108  12.072  1.00  0.00    +0.229 C 
ATOM     10  O   UNL     1      45.444  30.072  12.027  1.00  0.00    -0.274 OA
ATOM     11  N   UNL     1      43.480  29.750  10.964  1.00  0.00    -0.342 N 
ATOM     12  C   UNL     1      44.174  29.278   9.772  1.00  0.00    +0.119 C 
ATOM     13  C   UNL     1      42.040  29.746  10.746  1.00  0.00    +0.119 C 
ATOM     14  C   UNL     1      43.081  28.726   8.870  1.00  0.00    +0.023 C 
ATOM     15  C   UNL     1      41.880  29.582   9.240  1.00  0.00    +0.023 C 
ENDBRANCH   5   9
BRANCH   3  16
ATOM     16  C   UNL     1      42.621  33.401  15.557  1.00  0.00    +0.274 C 
ATOM     17  O   UNL     1      43.302  34.003  16.393  1.00  0.00    -0.267 OA
BRANCH  16  18
ATOM     18  C   UNL     1      41.313  33.997  15.153  1.00  0.00    +0.147 A 
ATOM     19  C   UNL     1      40.159  33.555  15.779  1.00  0.00    +0.146 A 
ATOM     20  N   UNL     1      41.279  34.979  14.215  1.00  0.00    -0.239 NA
ATOM     21  N   UNL     1      38.930  34.053  15.488  1.00  0.00    -0.252 NA
ATOM     22  C   UNL     1      40.067  35.488  13.919  1.00  0.00    +0.090 A 
ATOM     23  C   UNL     1      38.886  35.023  14.556  1.00  0.00    +0.089 A 
ATOM     24  C   UNL     1      39.965  36.494  12.967  1.00  0.00    +0.030 A 
ATOM     25  C   UNL     1      37.664  35.585  14.208  1.00  0.00    +0.030 A 
ATOM     26  C   UNL     1      38.731  37.052  12.626  1.00  0.00    +0.002 A 
ATOM     27  C   UNL     1      37.577  36.596  13.248  1.00  0.00    +0.002 A 
ENDBRANCH  16  18
ENDBRANCH   3  16
TORSDOF 4
ENDMDL
MODEL 6
REMARK VINA RESULT:    -7.822      3.745      8.347
REMARK INTER + INTRA:         -10.162
REMARK INTER:                  -9.541
REMARK INTRA:                  -0.621
REMARK UNBOUND:                -0.739
REMARK SMILES N[C@H]1CN(C(=O)c2cnc3ccccc3n2)C[C@H]1C(=O)N1CCCC1
REMARK SMILES IDX 2 1 3 2 4 3 17 4 18 5 1 6 19 9 20 10 21 11 22 12 25 13 23 14
REMARK SMILES IDX 24 15 5 16 6 17 7 18 8 19 16 20 9 21 15 22 10 23 14 24 11 25
REMARK SMILES IDX 13 26 12 27
REMARK H PARENT 1 7 1 8
ROOT
ATOM      1  C   UNL     1      41.654  31.315  14.920  1.00  0.00    +0.084 C 
ATOM      2  C   UNL     1      41.460  32.845  15.065  1.00  0.00    +0.139 C 
ATOM      3  N   UNL     1      42.347  33.447  14.070  1.00  0.00    -0.335 N 
ATOM      4  C   UNL     1      42.919  32.426  13.200  1.00  0.00    +0.135 C 
ATOM      5  C   UNL     1      42.047  31.209  13.440  1.00  0.00    +0.116 C 
ENDROOT
BRANCH   1   6
ATOM      6  N   UNL     1      42.665  30.816  15.864  1.00  0.00    -0.325 NA
ATOM      7  H   UNL     1      43.430  31.490  15.923  1.00  0.00    +0.119 HD
ATOM      8  H   UNL     1      43.078  29.958  15.499  1.00  0.00    +0.119 HD
ENDBRANCH   1   6
BRANCH   5   9
ATOM      9  C   UNL     1      42.466  29.829  12.961  1.00  0.00    +0.229 C 
ATOM     10  O   UNL     1      42.846  29.022  13.823  1.00  0.00    -0.274 OA
ATOM     11  N   UNL     1      42.507  29.471  11.638  1.00  0.00    -0.342 N 
ATOM     12  C   UNL     1      42.940  28.129  11.270  1.00  0.00    +0.119 C 
ATOM     13  C   UNL     1      42.165  30.237  10.447  1.00  0.00    +0.119 C 
ATOM     14  C   UNL     1      42.606  27.996   9.792  1.00  0.00    +0.023 C 
ATOM     15  C   UNL     1      42.738  29.426   9.292  1.00  0.00    +0.023 C 
ENDBRANCH   5   9
BRANCH   3  16
ATOM     16  C   UNL     1      42.765  34.766  13.982  1.00  0.00    +0.274 C 
ATOM     17  O   UNL     1      42.257  35.541  13.168  1.00  0.00    -0.267 OA
BRANCH  16  18
ATOM     18  C   UNL     1      43.844  35.288  14.874  1.00  0.00    +0.147 A 
ATOM     19  C   UNL     1      43.492  36.107  15.934  1.00  0.00    +0.146 A 
ATOM     20  N   UNL     1      45.135  34.925  14.656  1.00  0.00    -0.239 NA
ATOM     21  N   UNL     1      44.403  36.611  16.805  1.00  0.00    -0.252 NA
ATOM     22  C   UNL     1      46.051  35.413  15.516  1.00  0.00    +0.090 A 
ATOM     23  C   UNL     1      45.686  36.261  16.594  1.00  0.00    +0.089 A 
ATOM     24  C   UNL     1      47.389  35.080  15.346  1.00  0.00    +0.030 A 
ATOM     25  C   UNL     1      46.675  36.735  17.447  1.00  0.00    +0.030 A 
ATOM     26  C   UNL     1      48.375  35.562  16.210  1.00  0.00    +0.002 A 
ATOM     27  C   UNL     1      48.016  36.393  17.264  1.00  0.00    +0.002 A 
ENDBRANCH  16  18
ENDBRANCH   3  16
TORSDOF 4
ENDMDL
MODEL 7
REMARK VINA RESULT:    -7.605      4.147      5.380
REMARK INTER + INTRA:          -9.900
REMARK INTER:                  -9.134
REMARK INTRA:                  -0.766
REMARK UNBOUND:                -0.739
REMARK SMILES N[C@H]1CN(C(=O)c2cnc3ccccc3n2)C[C@H]1C(=O)N1CCCC1
REMARK SMILES IDX 2 1 3 2 4 3 17 4 18 5 1 6 19 9 20 10 21 11 22 12 25 13 23 14
REMARK SMILES IDX 24 15 5 16 6 17 7 18 8 19 16 20 9 21 15 22 10 23 14 24 11 25
REMARK SMILES IDX 13 26 12 27
REMARK H PARENT 1 7 1 8
ROOT
ATOM      1  C   UNL     1      42.320  34.437  14.926  1.00  0.00    +0.084 C 
ATOM      2  C   UNL     1      41.299  33.298  15.163  1.00  0.00    +0.139 C 
ATOM      3  N   UNL     1      42.099  32.086  15.333  1.00  0.00    -0.335 N 
ATOM      4  C   UNL     1      43.518  32.408  15.415  1.00  0.00    +0.135 C 
ATOM      5  C   UNL     1      43.540  33.900  15.687  1.00  0.00    +0.116 C 
ENDROOT
BRANCH   1   6
ATOM      6  N   UNL     1      42.539  34.665  13.490  1.00  0.00    -0.325 NA
ATOM      7  H   UNL     1      42.609  35.669  13.318  1.00  0.00    +0.119 HD
ATOM      8  H   UNL     1      41.723  34.350  12.967  1.00  0.00    +0.119 HD
ENDBRANCH   1   6
BRANCH   5   9
ATOM      9  C   UNL     1      44.818  34.710  15.550  1.00  0.00    +0.229 C 
ATOM     10  O   UNL     1      45.299  34.822  14.411  1.00  0.00    -0.274 OA
ATOM     11  N   UNL     1      45.484  35.252  16.619  1.00  0.00    -0.342 N 
ATOM     12  C   UNL     1      46.715  36.001  16.394  1.00  0.00    +0.119 C 
ATOM     13  C   UNL     1      45.162  35.224  18.038  1.00  0.00    +0.119 C 
ATOM     14  C   UNL     1      47.021  36.670  17.725  1.00  0.00    +0.023 C 
ATOM     15  C   UNL     1      46.436  35.692  18.731  1.00  0.00    +0.023 C 
ENDBRANCH   5   9
BRANCH   3  16
ATOM     16  C   UNL     1      41.676  30.766  15.281  1.00  0.00    +0.274 C 
ATOM     17  O   UNL     1      41.269  30.189  16.293  1.00  0.00    -0.267 OA
BRANCH  16  18
ATOM     18  C   UNL     1      41.698  30.004  13.997  1.00  0.00    +0.147 A 
ATOM     19  C   UNL     1      41.496  28.634  14.032  1.00  0.00    +0.146 A 
ATOM     20  N   UNL     1      41.878  30.664  12.823  1.00  0.00    -0.239 NA
ATOM     21  N   UNL     1      41.481  27.867  12.913  1.00  0.00    -0.252 NA
ATOM     22  C   UNL     1      41.860  29.916  11.702  1.00  0.00    +0.090 A 
ATOM     23  C   UNL     1      41.663  28.512  11.745  1.00  0.00    +0.089 A 
ATOM     24  C   UNL     1      42.039  30.533  10.470  1.00  0.00    +0.030 A 
ATOM     25  C   UNL     1      41.657  27.793  10.557  1.00  0.00    +0.030 A 
ATOM     26  C   UNL     1      42.030  29.799   9.281  1.00  0.00    +0.002 A 
ATOM     27  C   UNL     1      41.839  28.424   9.325  1.00  0.00    +0.002 A 
ENDBRANCH  16  18
ENDBRANCH   3  16
TORSDOF 4
ENDMDL
MODEL 8
REMARK VINA RESULT:    -7.542      6.044      8.227
REMARK INTER + INTRA:          -9.824
REMARK INTER:                  -9.050
REMARK INTRA:                  -0.774
REMARK UNBOUND:                -0.739
REMARK SMILES N[C@H]1CN(C(=O)c2cnc3ccccc3n2)C[C@H]1C(=O)N1CCCC1
REMARK SMILES IDX 2 1 3 2 4 3 17 4 18 5 1 6 19 9 20 10 21 11 22 12 25 13 23 14
REMARK SMILES IDX 24 15 5 16 6 17 7 18 8 19 16 20 9 21 15 22 10 23 14 24 11 25
REMARK SMILES IDX 13 26 12 27
REMARK H PARENT 1 7 1 8
ROOT
ATOM      1  C   UNL     1      43.570  31.389  14.952  1.00  0.00    +0.084 C 
ATOM      2  C   UNL     1      43.923  30.020  14.320  1.00  0.00    +0.139 C 
ATOM      3  N   UNL     1      42.670  29.267  14.295  1.00  0.00    -0.335 N 
ATOM      4  C   UNL     1      41.547  30.117  14.673  1.00  0.00    +0.135 C 
ATOM      5  C   UNL     1      42.095  31.526  14.551  1.00  0.00    +0.116 C 
ENDROOT
BRANCH   1   6
ATOM      6  N   UNL     1      43.818  31.386  16.401  1.00  0.00    -0.325 NA
ATOM      7  H   UNL     1      44.013  32.340  16.709  1.00  0.00    +0.119 HD
ATOM      8  H   UNL     1      44.663  30.852  16.601  1.00  0.00    +0.119 HD
ENDBRANCH   1   6
BRANCH   5   9
ATOM      9  C   UNL     1      41.354  32.716  15.136  1.00  0.00    +0.229 C 
ATOM     10  O   UNL     1      40.830  32.565  16.250  1.00  0.00    -0.274 OA
ATOM     11  N   UNL     1      41.186  33.902  14.467  1.00  0.00    -0.342 N 
ATOM     12  C   UNL     1      40.445  34.985  15.101  1.00  0.00    +0.119 C 
ATOM     13  C   UNL     1      41.653  34.311  13.150  1.00  0.00    +0.119 C 
ATOM     14  C   UNL     1      40.687  36.200  14.219  1.00  0.00    +0.023 C 
ATOM     15  C   UNL     1      40.870  35.581  12.843  1.00  0.00    +0.023 C 
ENDBRANCH   5   9
BRANCH   3  16
ATOM     16  C   UNL     1      42.492  27.906  14.103  1.00  0.00    +0.274 C 
ATOM     17  O   UNL     1      42.654  27.107  15.030  1.00  0.00    -0.267 OA
BRANCH  16  18
ATOM     18  C   UNL     1      42.098  27.365  12.767  1.00  0.00    +0.147 A 
ATOM     19  C   UNL     1      41.708  26.039  12.675  1.00  0.00    +0.146 A 
ATOM     20  N   UNL     1      42.094  28.182  11.682  1.00  0.00    -0.239 NA
ATOM     21  N   UNL     1      41.316  25.470  11.507  1.00  0.00    -0.252 NA
ATOM     22  C   UNL     1      41.701  27.633  10.516  1.00  0.00    +0.090 A 
ATOM     23  C   UNL     1      41.313  26.271  10.425  1.00  0.00    +0.089 A 
ATOM     24  C   UNL     1      41.676  28.417   9.369  1.00  0.00    +0.030 A 
ATOM     25  C   UNL     1      40.920  25.760   9.195  1.00  0.00    +0.030 A 
ATOM     26  C   UNL     1      41.279  27.893   8.137  1.00  0.00    +0.002 A 
ATOM     27  C   UNL     1      40.900  26.559   8.050  1.00  0.00    +0.002 A 
ENDBRANCH  16  18
ENDBRANCH   3  16
TORSDOF 4
ENDMDL
MODEL 9
REMARK VINA RESULT:    -7.383      2.771      3.978
REMARK INTER + INTRA:          -9.633
REMARK INTER:                  -8.994
REMARK INTRA:                  -0.639
REMARK UNBOUND:                -0.739
REMARK SMILES N[C@H]1CN(C(=O)c2cnc3ccccc3n2)C[C@H]1C(=O)N1CCCC1
REMARK SMILES IDX 2 1 3 2 4 3 17 4 18 5 1 6 19 9 20 10 21 11 22 12 25 13 23 14
REMARK SMILES IDX 24 15 5 16 6 17 7 18 8 19 16 20 9 21 15 22 10 23 14 24 11 25
REMARK SMILES IDX 13 26 12 27
REMARK H PARENT 1 7 1 8
ROOT
ATOM      1  C   UNL     1      44.478  34.872  18.042  1.00  0.00    +0.084 C 
ATOM      2  C   UNL     1      43.701  33.962  17.059  1.00  0.00    +0.139 C 
ATOM      3  N   UNL     1      43.790  34.625  15.759  1.00  0.00    -0.335 N 
ATOM      4  C   UNL     1      44.711  35.753  15.815  1.00  0.00    +0.135 C 
ATOM      5  C   UNL     1      45.493  35.527  17.094  1.00  0.00    +0.116 C 
ENDROOT
BRANCH   1   6
ATOM      6  N   UNL     1      43.576  35.812  18.724  1.00  0.00    -0.325 NA
ATOM      7  H   UNL     1      44.055  36.205  19.535  1.00  0.00    +0.119 HD
ATOM      8  H   UNL     1      42.772  35.304  19.094  1.00  0.00    +0.119 HD
ENDBRANCH   1   6
BRANCH   5   9
ATOM      9  C   UNL     1      46.356  36.621  17.698  1.00  0.00    +0.229 C 
ATOM     10  O   UNL     1      45.784  37.665  18.049  1.00  0.00    -0.274 OA
ATOM     11  N   UNL     1      47.721  36.532  17.804  1.00  0.00    -0.342 N 
ATOM     12  C   UNL     1      48.471  37.640  18.381  1.00  0.00    +0.119 C 
ATOM     13  C   UNL     1      48.623  35.453  17.426  1.00  0.00    +0.119 C 
ATOM     14  C   UNL     1      49.877  37.102  18.591  1.00  0.00    +0.023 C 
ATOM     15  C   UNL     1      50.011  36.080  17.473  1.00  0.00    +0.023 C 
ENDBRANCH   5   9
BRANCH   3  16
ATOM     16  C   UNL     1      43.033  34.385  14.622  1.00  0.00    +0.274 C 
ATOM     17  O   UNL     1      42.137  35.161  14.280  1.00  0.00    -0.267 OA
BRANCH  16  18
ATOM     18  C   UNL     1      43.284  33.180  13.775  1.00  0.00    +0.147 A 
ATOM     19  C   UNL     1      44.398  32.401  14.040  1.00  0.00    +0.146 A 
ATOM     20  N   UNL     1      42.405  32.851  12.793  1.00  0.00    -0.239 NA
ATOM     21  N   UNL     1      44.692  31.279  13.334  1.00  0.00    -0.252 NA
ATOM     22  C   UNL     1      42.681  31.737  12.086  1.00  0.00    +0.090 A 
ATOM     23  C   UNL     1      43.829  30.948  12.355  1.00  0.00    +0.089 A 
ATOM     24  C   UNL     1      41.821  31.347  11.067  1.00  0.00    +0.030 A 
ATOM     25  C   UNL     1      44.063  29.811  11.592  1.00  0.00    +0.030 A 
ATOM     26  C   UNL     1      42.066  30.201  10.307  1.00  0.00    +0.002 A 
ATOM     27  C   UNL     1      43.191  29.431  10.570  1.00  0.00    +0.002 A 
ENDBRANCH  16  18
ENDBRANCH   3  16
TORSDOF 4
ENDMDL
