MODEL 1
REMARK VINA RESULT:    -7.848      0.000      0.000
REMARK INTER + INTRA:          -9.296
REMARK INTER:                  -8.995
REMARK INTRA:                  -0.301
REMARK UNBOUND:                -0.301
REMARK SMILES O=c1c(-c2ccc(O)cc2)coc2cc(O)cc(O)c12
REMARK SMILES IDX 1 1 2 2 3 3 11 4 12 5 13 6 14 7 15 8 17 9 18 10 20 11 4 12
REMARK SMILES IDX 5 13 10 14 6 15 9 16 7 17 8 18 19 20 16 22
REMARK H PARENT 8 19 19 21 16 23
ROOT
ATOM      1  O   UNL     1      40.837  33.494  16.873  1.00  0.00    -0.288 OA
ATOM      2  C   UNL     1      41.297  34.195  15.977  1.00  0.00    +0.204 C 
ATOM      3  C   UNL     1      42.755  34.435  15.792  1.00  0.00    +0.065 C 
ATOM      4  C   UNL     1      43.113  35.208  14.755  1.00  0.00    +0.208 C 
ATOM      5  O   UNL     1      42.275  35.817  13.853  1.00  0.00    -0.463 OA
ATOM      6  C   UNL     1      40.925  35.627  14.005  1.00  0.00    +0.145 A 
ATOM      7  C   UNL     1      40.089  36.257  13.084  1.00  0.00    +0.094 A 
ATOM      8  C   UNL     1      38.710  36.099  13.189  1.00  0.00    +0.123 A 
ATOM      9  C   UNL     1      38.153  35.321  14.200  1.00  0.00    +0.093 A 
ATOM     10  C   UNL     1      38.995  34.695  15.118  1.00  0.00    +0.134 A 
ATOM     11  C   UNL     1      40.383  34.846  15.023  1.00  0.00    +0.107 A 
ENDROOT
BRANCH   3  12
ATOM     12  C   UNL     1      43.774  33.837  16.676  1.00  0.00    -0.011 A 
ATOM     13  C   UNL     1      44.399  32.625  16.339  1.00  0.00    +0.013 A 
ATOM     14  C   UNL     1      44.143  34.472  17.871  1.00  0.00    +0.013 A 
ATOM     15  C   UNL     1      45.359  32.060  17.182  1.00  0.00    +0.047 A 
ATOM     16  C   UNL     1      45.105  33.910  18.715  1.00  0.00    +0.047 A 
ATOM     17  C   UNL     1      45.704  32.705  18.362  1.00  0.00    +0.115 A 
BRANCH  17  18
ATOM     18  O   UNL     1      46.647  32.121  19.154  1.00  0.00    -0.508 OA
ATOM     19  H   UNL     1      46.225  31.840  19.982  1.00  0.00    +0.293 HD
ENDBRANCH  17  18
ENDBRANCH   3  12
BRANCH  10  20
ATOM     20  O   UNL     1      38.389  33.944  16.090  1.00  0.00    -0.507 OA
ATOM     21  H   UNL     1      37.845  34.549  16.646  1.00  0.00    +0.293 HD
ENDBRANCH  10  20
BRANCH   8  22
ATOM     22  O   UNL     1      37.927  36.731  12.269  1.00  0.00    -0.508 OA
ATOM     23  H   UNL     1      38.493  37.281  11.700  1.00  0.00    +0.293 HD
ENDBRANCH   8  22
TORSDOF 4
ENDMDL
MODEL 2
REMARK VINA RESULT:    -7.458      4.451      5.925
REMARK INTER + INTRA:          -8.849
REMARK INTER:                  -9.094
REMARK INTRA:                   0.246
REMARK UNBOUND:                -0.301
REMARK SMILES O=c1c(-c2ccc(O)cc2)coc2cc(O)cc(O)c12
REMARK SMILES IDX 1 1 2 2 3 3 11 4 12 5 13 6 14 7 15 8 17 9 18 10 20 11 4 12
REMARK SMILES IDX 5 13 10 14 6 15 9 16 7 17 8 18 19 20 16 22
REMARK H PARENT 8 19 19 21 16 23
ROOT
ATOM      1  O   UNL     1      41.220  33.491  11.675  1.00  0.00    -0.288 OA
ATOM      2  C   UNL     1      41.853  33.244  12.697  1.00  0.00    +0.204 C 
ATOM      3  C   UNL     1      42.722  32.046  12.853  1.00  0.00    +0.065 C 
ATOM      4  C   UNL     1      43.371  31.918  14.022  1.00  0.00    +0.208 C 
ATOM      5  O   UNL     1      43.305  32.768  15.098  1.00  0.00    -0.463 OA
ATOM      6  C   UNL     1      42.501  33.874  14.991  1.00  0.00    +0.145 A 
ATOM      7  C   UNL     1      42.442  34.724  16.095  1.00  0.00    +0.094 A 
ATOM      8  C   UNL     1      41.643  35.862  16.042  1.00  0.00    +0.123 A 
ATOM      9  C   UNL     1      40.902  36.166  14.904  1.00  0.00    +0.093 A 
ATOM     10  C   UNL     1      40.966  35.312  13.804  1.00  0.00    +0.134 A 
ATOM     11  C   UNL     1      41.765  34.164  13.844  1.00  0.00    +0.107 A 
ENDROOT
BRANCH   3  12
ATOM     12  C   UNL     1      42.901  31.052  11.778  1.00  0.00    -0.011 A 
ATOM     13  C   UNL     1      41.970  30.947  10.731  1.00  0.00    +0.013 A 
ATOM     14  C   UNL     1      44.010  30.193  11.778  1.00  0.00    +0.013 A 
ATOM     15  C   UNL     1      42.141  30.000   9.718  1.00  0.00    +0.047 A 
ATOM     16  C   UNL     1      44.185  29.247  10.764  1.00  0.00    +0.047 A 
ATOM     17  C   UNL     1      43.246  29.157   9.743  1.00  0.00    +0.115 A 
BRANCH  17  18
ATOM     18  O   UNL     1      43.376  28.250   8.734  1.00  0.00    -0.508 OA
ATOM     19  H   UNL     1      43.696  28.711   7.942  1.00  0.00    +0.293 HD
ENDBRANCH  17  18
ENDBRANCH   3  12
BRANCH  10  20
ATOM     20  O   UNL     1      40.214  35.662  12.714  1.00  0.00    -0.507 OA
ATOM     21  H   UNL     1      39.912  34.834  12.275  1.00  0.00    +0.293 HD
ENDBRANCH  10  20
BRANCH   8  22
ATOM     22  O   UNL     1      41.612  36.667  17.143  1.00  0.00    -0.508 OA
ATOM     23  H   UNL     1      41.800  37.581  16.869  1.00  0.00    +0.293 HD
ENDBRANCH   8  22
TORSDOF 4
ENDMDL
