MODEL 1
REMARK VINA RESULT:    -8.074      0.000      0.000
REMARK INTER + INTRA:         -11.905
REMARK INTER:                 -10.906
REMARK INTRA:                  -0.999
REMARK UNBOUND:                -0.999
REMARK SMILES COc1cc(OC)cc(-c2nc(N)c(CN)c(-c3ccc(Cl)cc3Cl)n2)c1
REMARK SMILES IDX 10 1 11 2 12 3 14 4 17 5 26 6 9 7 3 8 4 9 27 10 5 11 8 12
REMARK SMILES IDX 2 13 1 14 6 15 7 16 13 17 18 20 19 21 24 22 20 23 23 24
REMARK SMILES IDX 21 25 25 26 22 27 15 28 16 29
REMARK H PARENT 13 18 13 19 16 30 16 31
ROOT
ATOM      1  C   UNL     1      44.618  35.035  16.172  1.00  0.00    +0.162 A 
ATOM      2  N   UNL     1      43.754  35.644  16.996  1.00  0.00    -0.211 NA
ATOM      3  C   UNL     1      42.451  35.365  16.863  1.00  0.00    +0.132 A 
ATOM      4  C   UNL     1      41.965  34.469  15.919  1.00  0.00    +0.034 A 
ATOM      5  C   UNL     1      42.938  33.893  15.104  1.00  0.00    +0.082 A 
ATOM      6  N   UNL     1      44.257  34.153  15.230  1.00  0.00    -0.227 NA
ENDROOT
BRANCH   1   7
ATOM      7  C   UNL     1      46.054  35.345  16.314  1.00  0.00    +0.027 A 
ATOM      8  C   UNL     1      47.875  36.550  17.423  1.00  0.00    +0.123 A 
ATOM      9  C   UNL     1      48.803  35.936  16.577  1.00  0.00    +0.092 A 
ATOM     10  C   UNL     1      46.516  36.255  17.287  1.00  0.00    +0.058 A 
ATOM     11  C   UNL     1      48.382  35.031  15.606  1.00  0.00    +0.123 A 
ATOM     12  C   UNL     1      47.019  34.744  15.484  1.00  0.00    +0.058 A 
BRANCH   8  13
ATOM     13  O   UNL     1      48.420  37.415  18.333  1.00  0.00    -0.497 OA
ATOM     14  C   UNL     1      47.539  37.972  19.301  1.00  0.00    +0.278 C 
ENDBRANCH   8  13
BRANCH  11  15
ATOM     15  O   UNL     1      49.189  34.366  14.723  1.00  0.00    -0.497 OA
ATOM     16  C   UNL     1      48.598  33.956  13.497  1.00  0.00    +0.278 C 
ENDBRANCH  11  15
ENDBRANCH   1   7
BRANCH   3  17
ATOM     17  N   UNL     1      41.613  36.035  17.758  1.00  0.00    -0.383 N 
ATOM     18  H   UNL     1      41.127  35.382  18.362  1.00  0.00    +0.158 HD
ATOM     19  H   UNL     1      40.934  36.602  17.260  1.00  0.00    +0.158 HD
ENDBRANCH   3  17
BRANCH   5  20
ATOM     20  C   UNL     1      42.645  32.920  14.042  1.00  0.00    +0.019 A 
ATOM     21  C   UNL     1      43.033  31.577  14.209  1.00  0.00    +0.013 A 
ATOM     22  C   UNL     1      42.011  33.284  12.838  1.00  0.00    +0.051 A 
ATOM     23  C   UNL     1      42.775  30.625  13.220  1.00  0.00    +0.021 A 
ATOM     24  C   UNL     1      41.751  32.332  11.847  1.00  0.00    +0.041 A 
ATOM     25  C   UNL     1      42.132  31.007  12.046  1.00  0.00    +0.042 A 
ATOM     26 Cl   UNL     1      41.530  34.917  12.515  1.00  0.00    -0.084 Cl
ATOM     27 Cl   UNL     1      41.813  29.834  10.829  1.00  0.00    -0.084 Cl
ENDBRANCH   5  20
BRANCH   4  28
ATOM     28  C   UNL     1      40.508  34.131  15.788  1.00  0.00    +0.119 C 
BRANCH  28  29
ATOM     29  N   UNL     1      39.910  33.712  17.048  1.00  0.00    -0.326 NA
ATOM     30  H   UNL     1      39.982  32.701  17.158  1.00  0.00    +0.119 HD
ATOM     31  H   UNL     1      38.917  33.936  17.053  1.00  0.00    +0.119 HD
ENDBRANCH  28  29
ENDBRANCH   4  28
TORSDOF 7
ENDMDL
MODEL 2
REMARK VINA RESULT:    -8.053      0.170      2.514
REMARK INTER + INTRA:         -11.876
REMARK INTER:                 -10.815
REMARK INTRA:                  -1.061
REMARK UNBOUND:                -0.999
REMARK SMILES COc1cc(OC)cc(-c2nc(N)c(CN)c(-c3ccc(Cl)cc3Cl)n2)c1
REMARK SMILES IDX 10 1 11 2 12 3 14 4 17 5 26 6 9 7 3 8 4 9 27 10 5 11 8 12
REMARK SMILES IDX 2 13 1 14 6 15 7 16 13 17 18 20 19 21 24 22 20 23 23 24
REMARK SMILES IDX 21 25 25 26 22 27 15 28 16 29
REMARK H PARENT 13 18 13 19 16 30 16 31
ROOT
ATOM      1  C   UNL     1      44.624  34.991  16.146  1.00  0.00    +0.162 A 
ATOM      2  N   UNL     1      43.770  35.622  16.964  1.00  0.00    -0.211 NA
ATOM      3  C   UNL     1      42.465  35.343  16.850  1.00  0.00    +0.132 A 
ATOM      4  C   UNL     1      41.967  34.427  15.933  1.00  0.00    +0.034 A 
ATOM      5  C   UNL     1      42.930  33.828  15.121  1.00  0.00    +0.082 A 
ATOM      6  N   UNL     1      44.251  34.088  15.229  1.00  0.00    -0.227 NA
ENDROOT
BRANCH   1   7
ATOM      7  C   UNL     1      46.062  35.299  16.266  1.00  0.00    +0.027 A 
ATOM      8  C   UNL     1      48.382  34.954  15.561  1.00  0.00    +0.123 A 
ATOM      9  C   UNL     1      48.813  35.893  16.503  1.00  0.00    +0.092 A 
ATOM     10  C   UNL     1      47.020  34.663  15.450  1.00  0.00    +0.058 A 
ATOM     11  C   UNL     1      47.894  36.542  17.324  1.00  0.00    +0.123 A 
ATOM     12  C   UNL     1      46.534  36.242  17.199  1.00  0.00    +0.058 A 
BRANCH   8  13
ATOM     13  O   UNL     1      49.385  34.392  14.818  1.00  0.00    -0.497 OA
ATOM     14  C   UNL     1      49.051  33.964  13.504  1.00  0.00    +0.278 C 
ENDBRANCH   8  13
BRANCH  11  15
ATOM     15  O   UNL     1      48.189  37.477  18.278  1.00  0.00    -0.497 OA
ATOM     16  C   UNL     1      47.139  37.846  19.162  1.00  0.00    +0.278 C 
ENDBRANCH  11  15
ENDBRANCH   1   7
BRANCH   3  17
ATOM     17  N   UNL     1      41.638  36.037  17.737  1.00  0.00    -0.383 N 
ATOM     18  H   UNL     1      42.182  36.510  18.451  1.00  0.00    +0.158 HD
ATOM     19  H   UNL     1      40.976  35.408  18.180  1.00  0.00    +0.158 HD
ENDBRANCH   3  17
BRANCH   5  20
ATOM     20  C   UNL     1      42.623  32.832  14.086  1.00  0.00    +0.019 A 
ATOM     21  C   UNL     1      42.961  31.482  14.305  1.00  0.00    +0.013 A 
ATOM     22  C   UNL     1      42.026  33.177  12.858  1.00  0.00    +0.051 A 
ATOM     23  C   UNL     1      42.688  30.507  13.342  1.00  0.00    +0.021 A 
ATOM     24  C   UNL     1      41.752  32.202  11.894  1.00  0.00    +0.041 A 
ATOM     25  C   UNL     1      42.082  30.872  12.144  1.00  0.00    +0.042 A 
ATOM     26 Cl   UNL     1      41.609  34.814  12.473  1.00  0.00    -0.084 Cl
ATOM     27 Cl   UNL     1      41.746  29.671  10.958  1.00  0.00    -0.084 Cl
ENDBRANCH   5  20
BRANCH   4  28
ATOM     28  C   UNL     1      40.508  34.090  15.824  1.00  0.00    +0.119 C 
BRANCH  28  29
ATOM     29  N   UNL     1      39.927  33.678  17.094  1.00  0.00    -0.326 NA
ATOM     30  H   UNL     1      40.549  33.918  17.865  1.00  0.00    +0.119 HD
ATOM     31  H   UNL     1      39.815  32.666  17.114  1.00  0.00    +0.119 HD
ENDBRANCH  28  29
ENDBRANCH   4  28
TORSDOF 7
ENDMDL
MODEL 3
REMARK VINA RESULT:    -7.233      4.310      7.393
REMARK INTER + INTRA:         -10.768
REMARK INTER:                  -9.618
REMARK INTRA:                  -1.150
REMARK UNBOUND:                -0.999
REMARK SMILES COc1cc(OC)cc(-c2nc(N)c(CN)c(-c3ccc(Cl)cc3Cl)n2)c1
REMARK SMILES IDX 10 1 11 2 12 3 14 4 17 5 26 6 9 7 3 8 4 9 27 10 5 11 8 12
REMARK SMILES IDX 2 13 1 14 6 15 7 16 13 17 18 20 19 21 24 22 20 23 23 24
REMARK SMILES IDX 21 25 25 26 22 27 15 28 16 29
REMARK H PARENT 13 18 13 19 16 30 16 31
ROOT
ATOM      1  C   UNL     1      44.611  35.924  16.506  1.00  0.00    +0.162 A 
ATOM      2  N   UNL     1      44.724  37.235  16.763  1.00  0.00    -0.211 NA
ATOM      3  C   UNL     1      45.694  37.633  17.595  1.00  0.00    +0.132 A 
ATOM      4  C   UNL     1      46.586  36.751  18.190  1.00  0.00    +0.034 A 
ATOM      5  C   UNL     1      46.384  35.409  17.869  1.00  0.00    +0.082 A 
ATOM      6  N   UNL     1      45.419  34.989  17.023  1.00  0.00    -0.227 NA
ENDROOT
BRANCH   1   7
ATOM      7  C   UNL     1      43.539  35.482  15.592  1.00  0.00    +0.027 A 
ATOM      8  C   UNL     1      42.686  33.928  13.902  1.00  0.00    +0.123 A 
ATOM      9  C   UNL     1      41.486  34.643  13.845  1.00  0.00    +0.092 A 
ATOM     10  C   UNL     1      43.698  34.349  14.768  1.00  0.00    +0.058 A 
ATOM     11  C   UNL     1      41.293  35.765  14.647  1.00  0.00    +0.123 A 
ATOM     12  C   UNL     1      42.315  36.173  15.510  1.00  0.00    +0.058 A 
BRANCH   8  13
ATOM     13  O   UNL     1      42.744  32.846  13.066  1.00  0.00    -0.497 OA
ATOM     14  C   UNL     1      42.121  31.650  13.516  1.00  0.00    +0.278 C 
ENDBRANCH   8  13
BRANCH  11  15
ATOM     15  O   UNL     1      40.168  36.544  14.683  1.00  0.00    -0.497 OA
ATOM     16  C   UNL     1      39.206  36.330  13.658  1.00  0.00    +0.278 C 
ENDBRANCH  11  15
ENDBRANCH   1   7
BRANCH   3  17
ATOM     17  N   UNL     1      45.751  39.013  17.812  1.00  0.00    -0.383 N 
ATOM     18  H   UNL     1      46.708  39.347  17.790  1.00  0.00    +0.158 HD
ATOM     19  H   UNL     1      45.329  39.255  18.703  1.00  0.00    +0.158 HD
ENDBRANCH   3  17
BRANCH   5  20
ATOM     20  C   UNL     1      47.212  34.311  18.386  1.00  0.00    +0.019 A 
ATOM     21  C   UNL     1      46.815  33.641  19.560  1.00  0.00    +0.013 A 
ATOM     22  C   UNL     1      48.414  33.914  17.769  1.00  0.00    +0.051 A 
ATOM     23  C   UNL     1      47.579  32.595  20.085  1.00  0.00    +0.021 A 
ATOM     24  C   UNL     1      49.178  32.866  18.292  1.00  0.00    +0.041 A 
ATOM     25  C   UNL     1      48.754  32.211  19.445  1.00  0.00    +0.042 A 
ATOM     26 Cl   UNL     1      49.011  34.699  16.344  1.00  0.00    -0.084 Cl
ATOM     27 Cl   UNL     1      49.693  30.922  20.091  1.00  0.00    -0.084 Cl
ENDBRANCH   5  20
BRANCH   4  28
ATOM     28  C   UNL     1      47.694  37.198  19.099  1.00  0.00    +0.119 C 
BRANCH  28  29
ATOM     29  N   UNL     1      47.216  37.612  20.411  1.00  0.00    -0.326 NA
ATOM     30  H   UNL     1      46.351  38.144  20.323  1.00  0.00    +0.119 HD
ATOM     31  H   UNL     1      47.896  38.230  20.851  1.00  0.00    +0.119 HD
ENDBRANCH  28  29
ENDBRANCH   4  28
TORSDOF 7
ENDMDL
MODEL 4
REMARK VINA RESULT:    -6.870      4.377      7.242
REMARK INTER + INTRA:         -10.279
REMARK INTER:                  -9.120
REMARK INTRA:                  -1.160
REMARK UNBOUND:                -0.999
REMARK SMILES COc1cc(OC)cc(-c2nc(N)c(CN)c(-c3ccc(Cl)cc3Cl)n2)c1
REMARK SMILES IDX 10 1 11 2 12 3 14 4 17 5 26 6 9 7 3 8 4 9 27 10 5 11 8 12
REMARK SMILES IDX 2 13 1 14 6 15 7 16 13 17 18 20 19 21 24 22 20 23 23 24
REMARK SMILES IDX 21 25 25 26 22 27 15 28 16 29
REMARK H PARENT 13 18 13 19 16 30 16 31
ROOT
ATOM      1  C   UNL     1      44.618  35.969  16.719  1.00  0.00    +0.162 A 
ATOM      2  N   UNL     1      44.745  37.282  16.958  1.00  0.00    -0.211 NA
ATOM      3  C   UNL     1      45.691  37.678  17.819  1.00  0.00    +0.132 A 
ATOM      4  C   UNL     1      46.546  36.790  18.460  1.00  0.00    +0.034 A 
ATOM      5  C   UNL     1      46.332  35.447  18.153  1.00  0.00    +0.082 A 
ATOM      6  N   UNL     1      45.391  35.029  17.280  1.00  0.00    -0.227 NA
ENDROOT
BRANCH   1   7
ATOM      7  C   UNL     1      43.572  35.530  15.774  1.00  0.00    +0.027 A 
ATOM      8  C   UNL     1      41.342  35.784  14.795  1.00  0.00    +0.123 A 
ATOM      9  C   UNL     1      41.575  34.682  13.967  1.00  0.00    +0.092 A 
ATOM     10  C   UNL     1      42.334  36.198  15.688  1.00  0.00    +0.058 A 
ATOM     11  C   UNL     1      42.788  34.000  14.024  1.00  0.00    +0.123 A 
ATOM     12  C   UNL     1      43.772  34.427  14.922  1.00  0.00    +0.058 A 
BRANCH   8  13
ATOM     13  O   UNL     1      40.113  36.364  14.637  1.00  0.00    -0.497 OA
ATOM     14  C   UNL     1      39.072  35.540  14.127  1.00  0.00    +0.278 C 
ENDBRANCH   8  13
BRANCH  11  15
ATOM     15  O   UNL     1      43.135  32.912  13.269  1.00  0.00    -0.497 OA
ATOM     16  C   UNL     1      42.113  32.332  12.470  1.00  0.00    +0.278 C 
ENDBRANCH  11  15
ENDBRANCH   1   7
BRANCH   3  17
ATOM     17  N   UNL     1      45.764  39.060  18.015  1.00  0.00    -0.383 N 
ATOM     18  H   UNL     1      45.060  39.373  18.674  1.00  0.00    +0.158 HD
ATOM     19  H   UNL     1      45.648  39.555  17.137  1.00  0.00    +0.158 HD
ENDBRANCH   3  17
BRANCH   5  20
ATOM     20  C   UNL     1      47.121  34.344  18.718  1.00  0.00    +0.019 A 
ATOM     21  C   UNL     1      46.624  33.639  19.831  1.00  0.00    +0.013 A 
ATOM     22  C   UNL     1      48.381  33.977  18.207  1.00  0.00    +0.051 A 
ATOM     23  C   UNL     1      47.348  32.586  20.398  1.00  0.00    +0.021 A 
ATOM     24  C   UNL     1      49.106  32.923  18.773  1.00  0.00    +0.041 A 
ATOM     25  C   UNL     1      48.583  32.232  19.863  1.00  0.00    +0.042 A 
ATOM     26 Cl   UNL     1      49.101  34.806  16.867  1.00  0.00    -0.084 Cl
ATOM     27 Cl   UNL     1      49.474  30.936  20.561  1.00  0.00    -0.084 Cl
ENDBRANCH   5  20
BRANCH   4  28
ATOM     28  C   UNL     1      47.628  37.234  19.402  1.00  0.00    +0.119 C 
BRANCH  28  29
ATOM     29  N   UNL     1      48.749  37.864  18.718  1.00  0.00    -0.326 NA
ATOM     30  H   UNL     1      49.250  37.181  18.151  1.00  0.00    +0.119 HD
ATOM     31  H   UNL     1      49.415  38.223  19.399  1.00  0.00    +0.119 HD
ENDBRANCH  28  29
ENDBRANCH   4  28
TORSDOF 7
ENDMDL
