MODEL 1
REMARK VINA RESULT:    -7.330      0.000      0.000
REMARK INTER + INTRA:          -9.192
REMARK INTER:                  -8.830
REMARK INTRA:                  -0.362
REMARK UNBOUND:                -0.362
REMARK SMILES Oc1ccc(/C=C/c2cc(O)cc(O)c2)cc1
REMARK SMILES IDX 6 1 7 2 5 3 2 4 3 5 17 6 4 7 16 8 1 9 8 11 9 12 15 13 10 14
REMARK SMILES IDX 13 15 12 16 11 17 14 19
REMARK H PARENT 1 10 11 18 14 20
ROOT
ATOM      1  C   UNL     1      41.896  33.132  12.398  1.00  0.00    +0.009 C 
ATOM      2  C   UNL     1      42.598  32.001  12.570  1.00  0.00    +0.009 C 
ENDROOT
BRANCH   1   3
ATOM      3  C   UNL     1      41.734  34.160  13.435  1.00  0.00    -0.025 A 
ATOM      4  C   UNL     1      41.432  36.040  15.485  1.00  0.00    +0.115 A 
ATOM      5  C   UNL     1      42.316  34.982  15.648  1.00  0.00    +0.047 A 
ATOM      6  C   UNL     1      40.688  36.173  14.318  1.00  0.00    +0.047 A 
ATOM      7  C   UNL     1      42.462  34.040  14.626  1.00  0.00    +0.012 A 
ATOM      8  C   UNL     1      40.836  35.230  13.297  1.00  0.00    +0.012 A 
BRANCH   4   9
ATOM      9  O   UNL     1      41.318  36.936  16.506  1.00  0.00    -0.508 OA
ATOM     10  H   UNL     1      40.378  37.144  16.634  1.00  0.00    +0.293 HD
ENDBRANCH   4   9
ENDBRANCH   1   3
BRANCH   2  11
ATOM     11  C   UNL     1      42.754  30.972  11.531  1.00  0.00    -0.018 A 
ATOM     12  C   UNL     1      43.851  30.100  11.506  1.00  0.00    +0.054 A 
ATOM     13  C   UNL     1      41.802  30.894  10.505  1.00  0.00    +0.054 A 
ATOM     14  C   UNL     1      43.974  29.157  10.487  1.00  0.00    +0.119 A 
ATOM     15  C   UNL     1      41.943  29.942   9.495  1.00  0.00    +0.119 A 
ATOM     16  C   UNL     1      43.023  29.068   9.478  1.00  0.00    +0.092 A 
BRANCH  14  17
ATOM     17  O   UNL     1      45.059  28.331  10.514  1.00  0.00    -0.508 OA
ATOM     18  H   UNL     1      45.861  28.873  10.425  1.00  0.00    +0.293 HD
ENDBRANCH  14  17
BRANCH  15  19
ATOM     19  O   UNL     1      41.028  29.836   8.489  1.00  0.00    -0.508 OA
ATOM     20  H   UNL     1      41.424  30.176   7.669  1.00  0.00    +0.293 HD
ENDBRANCH  15  19
ENDBRANCH   2  11
TORSDOF 5
ENDMDL
MODEL 2
REMARK VINA RESULT:    -7.121      5.029      8.033
REMARK INTER + INTRA:          -8.940
REMARK INTER:                  -8.627
REMARK INTRA:                  -0.313
REMARK UNBOUND:                -0.362
REMARK SMILES Oc1ccc(/C=C/c2cc(O)cc(O)c2)cc1
REMARK SMILES IDX 6 1 7 2 5 3 2 4 3 5 17 6 4 7 16 8 1 9 8 11 9 12 15 13 10 14
REMARK SMILES IDX 13 15 12 16 11 17 14 19
REMARK H PARENT 1 10 11 18 14 20
ROOT
ATOM      1  C   UNL     1      43.679  35.601  15.663  1.00  0.00    +0.009 C 
ATOM      2  C   UNL     1      44.588  36.574  15.840  1.00  0.00    +0.009 C 
ENDROOT
BRANCH   1   3
ATOM      3  C   UNL     1      42.482  35.743  14.823  1.00  0.00    -0.025 A 
ATOM      4  C   UNL     1      40.142  35.988  13.309  1.00  0.00    +0.115 A 
ATOM      5  C   UNL     1      40.170  36.463  14.613  1.00  0.00    +0.047 A 
ATOM      6  C   UNL     1      41.262  35.384  12.748  1.00  0.00    +0.047 A 
ATOM      7  C   UNL     1      41.337  36.335  15.371  1.00  0.00    +0.012 A 
ATOM      8  C   UNL     1      42.428  35.257  13.508  1.00  0.00    +0.012 A 
BRANCH   4   9
ATOM      9  O   UNL     1      38.984  36.132  12.605  1.00  0.00    -0.508 OA
ATOM     10  H   UNL     1      38.942  37.038  12.258  1.00  0.00    +0.293 HD
ENDBRANCH   4   9
ENDBRANCH   1   3
BRANCH   2  11
ATOM     11  C   UNL     1      45.782  36.431  16.685  1.00  0.00    -0.018 A 
ATOM     12  C   UNL     1      45.799  36.840  18.026  1.00  0.00    +0.054 A 
ATOM     13  C   UNL     1      46.957  35.915  16.119  1.00  0.00    +0.054 A 
ATOM     14  C   UNL     1      46.962  36.712  18.783  1.00  0.00    +0.119 A 
ATOM     15  C   UNL     1      48.109  35.793  16.895  1.00  0.00    +0.119 A 
ATOM     16  C   UNL     1      48.122  36.186  18.228  1.00  0.00    +0.092 A 
BRANCH  14  17
ATOM     17  O   UNL     1      46.920  37.123  20.084  1.00  0.00    -0.508 OA
ATOM     18  H   UNL     1      47.580  36.617  20.587  1.00  0.00    +0.293 HD
ENDBRANCH  14  17
BRANCH  15  19
ATOM     19  O   UNL     1      49.264  35.287  16.375  1.00  0.00    -0.508 OA
ATOM     20  H   UNL     1      49.346  35.579  15.453  1.00  0.00    +0.293 HD
ENDBRANCH  15  19
ENDBRANCH   2  11
TORSDOF 5
ENDMDL
MODEL 3
REMARK VINA RESULT:    -6.967      4.969      7.352
REMARK INTER + INTRA:          -8.755
REMARK INTER:                  -8.426
REMARK INTRA:                  -0.329
REMARK UNBOUND:                -0.362
REMARK SMILES Oc1ccc(/C=C/c2cc(O)cc(O)c2)cc1
REMARK SMILES IDX 6 1 7 2 5 3 2 4 3 5 17 6 4 7 16 8 1 9 8 11 9 12 15 13 10 14
REMARK SMILES IDX 13 15 12 16 11 17 14 19
REMARK H PARENT 1 10 11 18 14 20
ROOT
ATOM      1  C   UNL     1      45.077  36.684  16.331  1.00  0.00    +0.009 C 
ATOM      2  C   UNL     1      44.187  35.711  16.583  1.00  0.00    +0.009 C 
ENDROOT
BRANCH   1   3
ATOM      3  C   UNL     1      46.248  36.959  17.175  1.00  0.00    -0.025 A 
ATOM      4  C   UNL     1      48.502  37.378  18.778  1.00  0.00    +0.115 A 
ATOM      5  C   UNL     1      48.568  36.480  17.722  1.00  0.00    +0.047 A 
ATOM      6  C   UNL     1      47.326  38.067  19.055  1.00  0.00    +0.047 A 
ATOM      7  C   UNL     1      47.440  36.266  16.925  1.00  0.00    +0.012 A 
ATOM      8  C   UNL     1      46.200  37.853  18.256  1.00  0.00    +0.012 A 
BRANCH   4   9
ATOM      9  O   UNL     1      49.624  37.557  19.532  1.00  0.00    -0.508 OA
ATOM     10  H   UNL     1      50.359  37.079  19.113  1.00  0.00    +0.293 HD
ENDBRANCH   4   9
ENDBRANCH   1   3
BRANCH   2  11
ATOM     11  C   UNL     1      43.013  35.441  15.740  1.00  0.00    -0.018 A 
ATOM     12  C   UNL     1      42.991  35.753  14.373  1.00  0.00    +0.054 A 
ATOM     13  C   UNL     1      41.862  34.902  16.331  1.00  0.00    +0.054 A 
ATOM     14  C   UNL     1      41.847  35.505  13.617  1.00  0.00    +0.119 A 
ATOM     15  C   UNL     1      40.728  34.660  15.555  1.00  0.00    +0.119 A 
ATOM     16  C   UNL     1      40.711  34.956  14.198  1.00  0.00    +0.092 A 
BRANCH  14  17
ATOM     17  O   UNL     1      41.882  35.824  12.291  1.00  0.00    -0.508 OA
ATOM     18  H   UNL     1      41.978  35.003  11.779  1.00  0.00    +0.293 HD
ENDBRANCH  14  17
BRANCH  15  19
ATOM     19  O   UNL     1      39.597  34.128  16.100  1.00  0.00    -0.508 OA
ATOM     20  H   UNL     1      39.806  33.791  16.987  1.00  0.00    +0.293 HD
ENDBRANCH  15  19
ENDBRANCH   2  11
TORSDOF 5
ENDMDL
MODEL 4
REMARK VINA RESULT:    -5.520      3.878      5.538
REMARK INTER + INTRA:          -7.011
REMARK INTER:                  -6.663
REMARK INTRA:                  -0.348
REMARK UNBOUND:                -0.362
REMARK SMILES Oc1ccc(/C=C/c2cc(O)cc(O)c2)cc1
REMARK SMILES IDX 6 1 7 2 5 3 2 4 3 5 17 6 4 7 16 8 1 9 8 11 9 12 15 13 10 14
REMARK SMILES IDX 13 15 12 16 11 17 14 19
REMARK H PARENT 1 10 11 18 14 20
ROOT
ATOM      1  C   UNL     1      44.662  34.681  16.449  1.00  0.00    +0.009 C 
ATOM      2  C   UNL     1      43.659  34.663  15.557  1.00  0.00    +0.009 C 
ENDROOT
BRANCH   1   3
ATOM      3  C   UNL     1      45.204  35.910  17.046  1.00  0.00    -0.025 A 
ATOM      4  C   UNL     1      46.254  38.287  18.081  1.00  0.00    +0.115 A 
ATOM      5  C   UNL     1      45.446  38.327  16.953  1.00  0.00    +0.047 A 
ATOM      6  C   UNL     1      46.555  37.078  18.699  1.00  0.00    +0.047 A 
ATOM      7  C   UNL     1      44.926  37.138  16.432  1.00  0.00    +0.012 A 
ATOM      8  C   UNL     1      46.034  35.891  18.177  1.00  0.00    +0.012 A 
BRANCH   4   9
ATOM      9  O   UNL     1      46.741  39.468  18.556  1.00  0.00    -0.508 OA
ATOM     10  H   UNL     1      47.707  39.402  18.624  1.00  0.00    +0.293 HD
ENDBRANCH   4   9
ENDBRANCH   1   3
BRANCH   2  11
ATOM     11  C   UNL     1      43.122  33.432  14.958  1.00  0.00    -0.018 A 
ATOM     12  C   UNL     1      42.761  33.358  13.606  1.00  0.00    +0.054 A 
ATOM     13  C   UNL     1      42.916  32.313  15.778  1.00  0.00    +0.054 A 
ATOM     14  C   UNL     1      42.230  32.179  13.086  1.00  0.00    +0.119 A 
ATOM     15  C   UNL     1      42.385  31.142  15.237  1.00  0.00    +0.119 A 
ATOM     16  C   UNL     1      42.041  31.063  13.893  1.00  0.00    +0.092 A 
BRANCH  14  17
ATOM     17  O   UNL     1      41.900  32.161  11.762  1.00  0.00    -0.508 OA
ATOM     18  H   UNL     1      41.625  31.259  11.526  1.00  0.00    +0.293 HD
ENDBRANCH  14  17
BRANCH  15  19
ATOM     19  O   UNL     1      42.182  30.034  16.007  1.00  0.00    -0.508 OA
ATOM     20  H   UNL     1      41.499  29.484  15.590  1.00  0.00    +0.293 HD
ENDBRANCH  15  19
ENDBRANCH   2  11
TORSDOF 5
ENDMDL
MODEL 5
REMARK VINA RESULT:    -5.349      2.584      3.741
REMARK INTER + INTRA:          -6.806
REMARK INTER:                  -6.466
REMARK INTRA:                  -0.340
REMARK UNBOUND:                -0.362
REMARK SMILES Oc1ccc(/C=C/c2cc(O)cc(O)c2)cc1
REMARK SMILES IDX 6 1 7 2 5 3 2 4 3 5 17 6 4 7 16 8 1 9 8 11 9 12 15 13 10 14
REMARK SMILES IDX 13 15 12 16 11 17 14 19
REMARK H PARENT 1 10 11 18 14 20
ROOT
ATOM      1  C   UNL     1      43.651  33.090  15.138  1.00  0.00    +0.009 C 
ATOM      2  C   UNL     1      42.815  33.120  14.087  1.00  0.00    +0.009 C 
ENDROOT
BRANCH   1   3
ATOM      3  C   UNL     1      44.067  34.284  15.886  1.00  0.00    -0.025 A 
ATOM      4  C   UNL     1      44.940  36.571  17.241  1.00  0.00    +0.115 A 
ATOM      5  C   UNL     1      44.952  36.548  15.852  1.00  0.00    +0.047 A 
ATOM      6  C   UNL     1      44.508  35.467  17.967  1.00  0.00    +0.047 A 
ATOM      7  C   UNL     1      44.521  35.403  15.176  1.00  0.00    +0.012 A 
ATOM      8  C   UNL     1      44.077  34.323  17.289  1.00  0.00    +0.012 A 
BRANCH   4   9
ATOM      9  O   UNL     1      45.370  37.706  17.861  1.00  0.00    -0.508 OA
ATOM     10  H   UNL     1      46.071  37.471  18.490  1.00  0.00    +0.293 HD
ENDBRANCH   4   9
ENDBRANCH   1   3
BRANCH   2  11
ATOM     11  C   UNL     1      42.404  31.924  13.337  1.00  0.00    -0.018 A 
ATOM     12  C   UNL     1      42.209  31.947  11.949  1.00  0.00    +0.054 A 
ATOM     13  C   UNL     1      42.149  30.738  14.039  1.00  0.00    +0.054 A 
ATOM     14  C   UNL     1      41.792  30.796  11.282  1.00  0.00    +0.119 A 
ATOM     15  C   UNL     1      41.734  29.597  13.351  1.00  0.00    +0.119 A 
ATOM     16  C   UNL     1      41.555  29.615  11.973  1.00  0.00    +0.092 A 
BRANCH  14  17
ATOM     17  O   UNL     1      41.622  30.873   9.930  1.00  0.00    -0.508 OA
ATOM     18  H   UNL     1      41.415  29.985   9.595  1.00  0.00    +0.293 HD
ENDBRANCH  14  17
BRANCH  15  19
ATOM     19  O   UNL     1      41.488  28.426  14.005  1.00  0.00    -0.508 OA
ATOM     20  H   UNL     1      42.217  27.809  13.828  1.00  0.00    +0.293 HD
ENDBRANCH  15  19
ENDBRANCH   2  11
TORSDOF 5
ENDMDL
