MODEL 1
REMARK VINA RESULT:    -7.696      0.000      0.000
REMARK INTER + INTRA:         -10.306
REMARK INTER:                  -9.271
REMARK INTRA:                  -1.034
REMARK UNBOUND:                -1.034
REMARK SMILES Cn1c(=O)cc(N2CCC[C@@H](N)C2)n(Cc2ccccc2C#N)c1=O
REMARK SMILES IDX 1 1 2 2 3 3 4 4 5 5 6 6 14 7 24 8 25 9 15 10 16 11 17 12
REMARK SMILES IDX 21 13 18 14 20 15 22 16 19 17 23 18 7 19 8 20 13 21 9 22
REMARK SMILES IDX 11 23 10 24 12 25
REMARK H PARENT 12 26 12 27
ROOT
ATOM      1  C   UNL     1      48.339  38.129  18.947  1.00  0.00    +0.158 C 
ATOM      2  N   UNL     1      47.222  37.528  18.246  1.00  0.00    -0.263 N 
ATOM      3  C   UNL     1      46.182  38.338  17.857  1.00  0.00    +0.258 C 
ATOM      4  O   UNL     1      46.110  39.546  18.067  1.00  0.00    -0.269 OA
ATOM      5  C   UNL     1      45.089  37.680  17.138  1.00  0.00    +0.117 C 
ATOM      6  C   UNL     1      45.072  36.354  16.950  1.00  0.00    +0.118 C 
ATOM      7  N   UNL     1      46.114  35.593  17.461  1.00  0.00    -0.275 N 
ATOM      8  C   UNL     1      47.205  36.146  18.128  1.00  0.00    +0.332 C 
ATOM      9  O   UNL     1      48.104  35.452  18.610  1.00  0.00    -0.247 OA
ENDROOT
BRANCH   7  10
ATOM     10  C   UNL     1      46.081  34.130  17.318  1.00  0.00    +0.166 C 
BRANCH  10  11
ATOM     11  C   UNL     1      46.468  33.639  15.931  1.00  0.00    -0.010 A 
ATOM     12  C   UNL     1      47.610  34.165  15.299  1.00  0.00    +0.007 A 
ATOM     13  C   UNL     1      45.685  32.704  15.223  1.00  0.00    +0.057 A 
ATOM     14  C   UNL     1      47.987  33.748  14.020  1.00  0.00    +0.000 A 
ATOM     15  C   UNL     1      46.073  32.291  13.937  1.00  0.00    +0.020 A 
ATOM     16  C   UNL     1      44.480  32.149  15.769  1.00  0.00    +0.099 C 
ATOM     17  C   UNL     1      47.221  32.808  13.340  1.00  0.00    +0.001 A 
ATOM     18  N   UNL     1      43.500  31.694  16.194  1.00  0.00    -0.192 NA
ENDBRANCH  10  11
ENDBRANCH   7  10
BRANCH   6  19
ATOM     19  N   UNL     1      44.011  35.766  16.246  1.00  0.00    -0.356 N 
ATOM     20  C   UNL     1      42.764  35.419  16.956  1.00  0.00    +0.118 C 
ATOM     21  C   UNL     1      43.861  36.094  14.804  1.00  0.00    +0.136 C 
ATOM     22  C   UNL     1      41.593  36.251  16.450  1.00  0.00    +0.023 C 
ATOM     23  C   UNL     1      42.565  35.511  14.205  1.00  0.00    +0.070 C 
ATOM     24  C   UNL     1      41.334  36.040  14.956  1.00  0.00    +0.022 C 
BRANCH  23  25
ATOM     25  N   UNL     1      42.435  35.787  12.770  1.00  0.00    -0.326 NA
ATOM     26  H   UNL     1      42.473  34.910  12.250  1.00  0.00    +0.119 HD
ATOM     27  H   UNL     1      41.523  36.198  12.568  1.00  0.00    +0.119 HD
ENDBRANCH  23  25
ENDBRANCH   6  19
TORSDOF 4
ENDMDL
MODEL 2
REMARK VINA RESULT:    -7.543      3.505      7.068
REMARK INTER + INTRA:         -10.121
REMARK INTER:                 -10.740
REMARK INTRA:                   0.620
REMARK UNBOUND:                -1.034
REMARK SMILES Cn1c(=O)cc(N2CCC[C@@H](N)C2)n(Cc2ccccc2C#N)c1=O
REMARK SMILES IDX 1 1 2 2 3 3 4 4 5 5 6 6 14 7 24 8 25 9 15 10 16 11 17 12
REMARK SMILES IDX 21 13 18 14 20 15 22 16 19 17 23 18 7 19 8 20 13 21 9 22
REMARK SMILES IDX 11 23 10 24 12 25
REMARK H PARENT 12 26 12 27
ROOT
ATOM      1  C   UNL     1      42.007  31.567  11.483  1.00  0.00    +0.158 C 
ATOM      2  N   UNL     1      42.500  32.335  12.609  1.00  0.00    -0.263 N 
ATOM      3  C   UNL     1      43.396  31.740  13.463  1.00  0.00    +0.258 C 
ATOM      4  O   UNL     1      43.813  30.588  13.362  1.00  0.00    -0.269 OA
ATOM      5  C   UNL     1      43.873  32.567  14.573  1.00  0.00    +0.117 C 
ATOM      6  C   UNL     1      43.395  33.801  14.784  1.00  0.00    +0.118 C 
ATOM      7  N   UNL     1      42.418  34.293  13.931  1.00  0.00    -0.275 N 
ATOM      8  C   UNL     1      41.935  33.581  12.835  1.00  0.00    +0.332 C 
ATOM      9  O   UNL     1      41.038  34.018  12.108  1.00  0.00    -0.247 OA
ENDROOT
BRANCH   7  10
ATOM     10  C   UNL     1      41.837  35.620  14.183  1.00  0.00    +0.166 C 
BRANCH  10  11
ATOM     11  C   UNL     1      40.329  35.678  13.986  1.00  0.00    -0.010 A 
ATOM     12  C   UNL     1      39.781  36.603  13.077  1.00  0.00    +0.007 A 
ATOM     13  C   UNL     1      39.445  34.868  14.727  1.00  0.00    +0.057 A 
ATOM     14  C   UNL     1      38.401  36.695  12.882  1.00  0.00    +0.000 A 
ATOM     15  C   UNL     1      38.059  34.967  14.523  1.00  0.00    +0.020 A 
ATOM     16  C   UNL     1      39.912  33.929  15.707  1.00  0.00    +0.099 C 
ATOM     17  C   UNL     1      37.539  35.874  13.601  1.00  0.00    +0.001 A 
ATOM     18  N   UNL     1      40.271  33.168  16.506  1.00  0.00    -0.192 NA
ENDBRANCH  10  11
ENDBRANCH   7  10
BRANCH   6  19
ATOM     19  N   UNL     1      43.888  34.564  15.852  1.00  0.00    -0.356 N 
ATOM     20  C   UNL     1      43.463  34.253  17.232  1.00  0.00    +0.118 C 
ATOM     21  C   UNL     1      45.239  35.168  15.715  1.00  0.00    +0.136 C 
ATOM     22  C   UNL     1      44.637  33.771  18.073  1.00  0.00    +0.023 C 
ATOM     23  C   UNL     1      45.715  35.835  17.022  1.00  0.00    +0.070 C 
ATOM     24  C   UNL     1      45.751  34.815  18.170  1.00  0.00    +0.022 C 
BRANCH  23  25
ATOM     25  N   UNL     1      47.026  36.479  16.880  1.00  0.00    -0.326 NA
ATOM     26  H   UNL     1      47.183  37.107  17.668  1.00  0.00    +0.119 HD
ATOM     27  H   UNL     1      47.770  35.782  16.920  1.00  0.00    +0.119 HD
ENDBRANCH  23  25
ENDBRANCH   6  19
TORSDOF 4
ENDMDL
MODEL 3
REMARK VINA RESULT:    -7.161      3.958      6.324
REMARK INTER + INTRA:          -9.660
REMARK INTER:                  -8.590
REMARK INTRA:                  -1.070
REMARK UNBOUND:                -1.034
REMARK SMILES Cn1c(=O)cc(N2CCC[C@@H](N)C2)n(Cc2ccccc2C#N)c1=O
REMARK SMILES IDX 1 1 2 2 3 3 4 4 5 5 6 6 14 7 24 8 25 9 15 10 16 11 17 12
REMARK SMILES IDX 21 13 18 14 20 15 22 16 19 17 23 18 7 19 8 20 13 21 9 22
REMARK SMILES IDX 11 23 10 24 12 25
REMARK H PARENT 12 26 12 27
ROOT
ATOM      1  C   UNL     1      43.876  28.991  10.700  1.00  0.00    +0.158 C 
ATOM      2  N   UNL     1      43.425  30.067  11.560  1.00  0.00    -0.263 N 
ATOM      3  C   UNL     1      42.433  30.899  11.100  1.00  0.00    +0.258 C 
ATOM      4  O   UNL     1      41.896  30.817   9.998  1.00  0.00    -0.269 OA
ATOM      5  C   UNL     1      42.005  31.957  12.017  1.00  0.00    +0.117 C 
ATOM      6  C   UNL     1      42.607  32.148  13.198  1.00  0.00    +0.118 C 
ATOM      7  N   UNL     1      43.668  31.324  13.548  1.00  0.00    -0.275 N 
ATOM      8  C   UNL     1      44.114  30.276  12.745  1.00  0.00    +0.332 C 
ATOM      9  O   UNL     1      45.083  29.576  13.053  1.00  0.00    -0.247 OA
ENDROOT
BRANCH   7  10
ATOM     10  C   UNL     1      44.381  31.557  14.811  1.00  0.00    +0.166 C 
BRANCH  10  11
ATOM     11  C   UNL     1      45.420  32.667  14.736  1.00  0.00    -0.010 A 
ATOM     12  C   UNL     1      46.450  32.592  13.780  1.00  0.00    +0.007 A 
ATOM     13  C   UNL     1      45.421  33.754  15.633  1.00  0.00    +0.057 A 
ATOM     14  C   UNL     1      47.429  33.584  13.691  1.00  0.00    +0.000 A 
ATOM     15  C   UNL     1      46.409  34.748  15.535  1.00  0.00    +0.020 A 
ATOM     16  C   UNL     1      44.436  33.889  16.668  1.00  0.00    +0.099 C 
ATOM     17  C   UNL     1      47.407  34.665  14.566  1.00  0.00    +0.001 A 
ATOM     18  N   UNL     1      43.650  34.012  17.514  1.00  0.00    -0.192 NA
ENDBRANCH  10  11
ENDBRANCH   7  10
BRANCH   6  19
ATOM     19  N   UNL     1      42.158  33.166  14.051  1.00  0.00    -0.356 N 
ATOM     20  C   UNL     1      42.313  34.579  13.651  1.00  0.00    +0.118 C 
ATOM     21  C   UNL     1      41.007  32.873  14.945  1.00  0.00    +0.136 C 
ATOM     22  C   UNL     1      40.959  35.244  13.444  1.00  0.00    +0.023 C 
ATOM     23  C   UNL     1      40.521  34.127  15.700  1.00  0.00    +0.070 C 
ATOM     24  C   UNL     1      40.104  35.227  14.713  1.00  0.00    +0.022 C 
BRANCH  23  25
ATOM     25  N   UNL     1      39.418  33.835  16.623  1.00  0.00    -0.326 NA
ATOM     26  H   UNL     1      39.592  32.946  17.091  1.00  0.00    +0.119 HD
ATOM     27  H   UNL     1      39.375  34.540  17.359  1.00  0.00    +0.119 HD
ENDBRANCH  23  25
ENDBRANCH   6  19
TORSDOF 4
ENDMDL
MODEL 4
REMARK VINA RESULT:    -6.966      3.232      5.743
REMARK INTER + INTRA:          -9.425
REMARK INTER:                  -8.493
REMARK INTRA:                  -0.932
REMARK UNBOUND:                -1.034
REMARK SMILES Cn1c(=O)cc(N2CCC[C@@H](N)C2)n(Cc2ccccc2C#N)c1=O
REMARK SMILES IDX 1 1 2 2 3 3 4 4 5 5 6 6 14 7 24 8 25 9 15 10 16 11 17 12
REMARK SMILES IDX 21 13 18 14 20 15 22 16 19 17 23 18 7 19 8 20 13 21 9 22
REMARK SMILES IDX 11 23 10 24 12 25
REMARK H PARENT 12 26 12 27
ROOT
ATOM      1  C   UNL     1      44.905  29.324  13.554  1.00  0.00    +0.158 C 
ATOM      2  N   UNL     1      44.126  30.535  13.725  1.00  0.00    -0.263 N 
ATOM      3  C   UNL     1      43.474  31.053  12.632  1.00  0.00    +0.258 C 
ATOM      4  O   UNL     1      43.505  30.578  11.499  1.00  0.00    -0.269 OA
ATOM      5  C   UNL     1      42.689  32.266  12.867  1.00  0.00    +0.117 C 
ATOM      6  C   UNL     1      42.681  32.876  14.059  1.00  0.00    +0.118 C 
ATOM      7  N   UNL     1      43.446  32.343  15.087  1.00  0.00    -0.275 N 
ATOM      8  C   UNL     1      44.194  31.175  14.953  1.00  0.00    +0.332 C 
ATOM      9  O   UNL     1      44.899  30.735  15.865  1.00  0.00    -0.247 OA
ENDROOT
BRANCH   7  10
ATOM     10  C   UNL     1      43.498  33.032  16.384  1.00  0.00    +0.166 C 
BRANCH  10  11
ATOM     11  C   UNL     1      44.473  34.200  16.420  1.00  0.00    -0.010 A 
ATOM     12  C   UNL     1      45.843  33.972  16.191  1.00  0.00    +0.007 A 
ATOM     13  C   UNL     1      44.060  35.511  16.732  1.00  0.00    +0.057 A 
ATOM     14  C   UNL     1      46.768  35.017  16.230  1.00  0.00    +0.000 A 
ATOM     15  C   UNL     1      44.998  36.557  16.770  1.00  0.00    +0.020 A 
ATOM     16  C   UNL     1      42.691  35.830  17.025  1.00  0.00    +0.099 C 
ATOM     17  C   UNL     1      46.346  36.311  16.516  1.00  0.00    +0.001 A 
ATOM     18  N   UNL     1      41.590  36.104  17.270  1.00  0.00    -0.192 NA
ENDBRANCH  10  11
ENDBRANCH   7  10
BRANCH   6  19
ATOM     19  N   UNL     1      41.906  34.031  14.244  1.00  0.00    -0.356 N 
ATOM     20  C   UNL     1      42.283  35.283  13.561  1.00  0.00    +0.118 C 
ATOM     21  C   UNL     1      40.456  33.862  14.526  1.00  0.00    +0.136 C 
ATOM     22  C   UNL     1      41.226  35.697  12.547  1.00  0.00    +0.023 C 
ATOM     23  C   UNL     1      39.706  35.209  14.542  1.00  0.00    +0.070 C 
ATOM     24  C   UNL     1      39.860  35.932  13.196  1.00  0.00    +0.022 C 
BRANCH  23  25
ATOM     25  N   UNL     1      38.283  35.056  14.870  1.00  0.00    -0.326 NA
ATOM     26  H   UNL     1      37.804  34.593  14.098  1.00  0.00    +0.119 HD
ATOM     27  H   UNL     1      38.169  34.448  15.681  1.00  0.00    +0.119 HD
ENDBRANCH  23  25
ENDBRANCH   6  19
TORSDOF 4
ENDMDL
MODEL 5
REMARK VINA RESULT:    -6.838      2.709      5.120
REMARK INTER + INTRA:          -9.271
REMARK INTER:                  -8.465
REMARK INTRA:                  -0.806
REMARK UNBOUND:                -1.034
REMARK SMILES Cn1c(=O)cc(N2CCC[C@@H](N)C2)n(Cc2ccccc2C#N)c1=O
REMARK SMILES IDX 1 1 2 2 3 3 4 4 5 5 6 6 14 7 24 8 25 9 15 10 16 11 17 12
REMARK SMILES IDX 21 13 18 14 20 15 22 16 19 17 23 18 7 19 8 20 13 21 9 22
REMARK SMILES IDX 11 23 10 24 12 25
REMARK H PARENT 12 26 12 27
ROOT
ATOM      1  C   UNL     1      46.792  30.651  14.895  1.00  0.00    +0.158 C 
ATOM      2  N   UNL     1      45.663  31.552  15.013  1.00  0.00    -0.263 N 
ATOM      3  C   UNL     1      44.891  31.783  13.900  1.00  0.00    +0.258 C 
ATOM      4  O   UNL     1      45.086  31.292  12.790  1.00  0.00    -0.269 OA
ATOM      5  C   UNL     1      43.755  32.687  14.081  1.00  0.00    +0.117 C 
ATOM      6  C   UNL     1      43.538  33.316  15.245  1.00  0.00    +0.118 C 
ATOM      7  N   UNL     1      44.421  33.104  16.293  1.00  0.00    -0.275 N 
ATOM      8  C   UNL     1      45.508  32.235  16.210  1.00  0.00    +0.332 C 
ATOM      9  O   UNL     1      46.307  32.087  17.139  1.00  0.00    -0.247 OA
ENDROOT
BRANCH   7  10
ATOM     10  C   UNL     1      44.235  33.832  17.556  1.00  0.00    +0.166 C 
BRANCH  10  11
ATOM     11  C   UNL     1      45.141  35.045  17.707  1.00  0.00    -0.010 A 
ATOM     12  C   UNL     1      45.090  36.075  16.748  1.00  0.00    +0.007 A 
ATOM     13  C   UNL     1      46.079  35.155  18.753  1.00  0.00    +0.057 A 
ATOM     14  C   UNL     1      45.916  37.197  16.846  1.00  0.00    +0.000 A 
ATOM     15  C   UNL     1      46.906  36.287  18.843  1.00  0.00    +0.020 A 
ATOM     16  C   UNL     1      46.233  34.133  19.749  1.00  0.00    +0.099 C 
ATOM     17  C   UNL     1      46.822  37.306  17.895  1.00  0.00    +0.001 A 
ATOM     18  N   UNL     1      46.373  33.315  20.560  1.00  0.00    -0.192 NA
ENDBRANCH  10  11
ENDBRANCH   7  10
BRANCH   6  19
ATOM     19  N   UNL     1      42.430  34.166  15.379  1.00  0.00    -0.356 N 
ATOM     20  C   UNL     1      42.397  35.447  14.647  1.00  0.00    +0.118 C 
ATOM     21  C   UNL     1      41.106  33.551  15.660  1.00  0.00    +0.136 C 
ATOM     22  C   UNL     1      41.280  35.461  13.612  1.00  0.00    +0.023 C 
ATOM     23  C   UNL     1      39.963  34.584  15.618  1.00  0.00    +0.070 C 
ATOM     24  C   UNL     1      39.900  35.269  14.244  1.00  0.00    +0.022 C 
BRANCH  23  25
ATOM     25  N   UNL     1      38.659  33.995  15.946  1.00  0.00    -0.326 NA
ATOM     26  H   UNL     1      37.969  34.291  15.255  1.00  0.00    +0.119 HD
ATOM     27  H   UNL     1      38.704  32.978  15.885  1.00  0.00    +0.119 HD
ENDBRANCH  23  25
ENDBRANCH   6  19
TORSDOF 4
ENDMDL
MODEL 6
REMARK VINA RESULT:    -6.809      3.382      5.706
REMARK INTER + INTRA:          -9.237
REMARK INTER:                  -8.551
REMARK INTRA:                  -0.686
REMARK UNBOUND:                -1.034
REMARK SMILES Cn1c(=O)cc(N2CCC[C@@H](N)C2)n(Cc2ccccc2C#N)c1=O
REMARK SMILES IDX 1 1 2 2 3 3 4 4 5 5 6 6 14 7 24 8 25 9 15 10 16 11 17 12
REMARK SMILES IDX 21 13 18 14 20 15 22 16 19 17 23 18 7 19 8 20 13 21 9 22
REMARK SMILES IDX 11 23 10 24 12 25
REMARK H PARENT 12 26 12 27
ROOT
ATOM      1  C   UNL     1      38.873  34.682  14.796  1.00  0.00    +0.158 C 
ATOM      2  N   UNL     1      40.269  34.635  15.186  1.00  0.00    -0.263 N 
ATOM      3  C   UNL     1      40.972  35.814  15.245  1.00  0.00    +0.258 C 
ATOM      4  O   UNL     1      40.515  36.924  14.978  1.00  0.00    -0.269 OA
ATOM      5  C   UNL     1      42.371  35.708  15.660  1.00  0.00    +0.117 C 
ATOM      6  C   UNL     1      42.948  34.520  15.886  1.00  0.00    +0.118 C 
ATOM      7  N   UNL     1      42.195  33.368  15.709  1.00  0.00    -0.275 N 
ATOM      8  C   UNL     1      40.849  33.385  15.347  1.00  0.00    +0.332 C 
ATOM      9  O   UNL     1      40.204  32.351  15.156  1.00  0.00    -0.247 OA
ENDROOT
BRANCH   7  10
ATOM     10  C   UNL     1      42.827  32.054  15.892  1.00  0.00    +0.166 C 
BRANCH  10  11
ATOM     11  C   UNL     1      42.910  31.229  14.615  1.00  0.00    -0.010 A 
ATOM     12  C   UNL     1      43.445  31.805  13.448  1.00  0.00    +0.007 A 
ATOM     13  C   UNL     1      42.418  29.910  14.542  1.00  0.00    +0.057 A 
ATOM     14  C   UNL     1      43.524  31.084  12.255  1.00  0.00    +0.000 A 
ATOM     15  C   UNL     1      42.502  29.192  13.337  1.00  0.00    +0.020 A 
ATOM     16  C   UNL     1      41.814  29.258  15.669  1.00  0.00    +0.099 C 
ATOM     17  C   UNL     1      43.057  29.775  12.200  1.00  0.00    +0.001 A 
ATOM     18  N   UNL     1      41.320  28.717  16.569  1.00  0.00    -0.192 NA
ENDBRANCH  10  11
ENDBRANCH   7  10
BRANCH   6  19
ATOM     19  N   UNL     1      44.289  34.464  16.293  1.00  0.00    -0.356 N 
ATOM     20  C   UNL     1      45.364  34.518  15.284  1.00  0.00    +0.118 C 
ATOM     21  C   UNL     1      44.636  35.007  17.633  1.00  0.00    +0.136 C 
ATOM     22  C   UNL     1      46.198  35.783  15.435  1.00  0.00    +0.023 C 
ATOM     23  C   UNL     1      46.158  35.030  17.876  1.00  0.00    +0.070 C 
ATOM     24  C   UNL     1      46.866  35.878  16.808  1.00  0.00    +0.022 C 
BRANCH  23  25
ATOM     25  N   UNL     1      46.507  35.517  19.216  1.00  0.00    -0.326 NA
ATOM     26  H   UNL     1      46.843  36.478  19.152  1.00  0.00    +0.119 HD
ATOM     27  H   UNL     1      45.678  35.546  19.810  1.00  0.00    +0.119 HD
ENDBRANCH  23  25
ENDBRANCH   6  19
TORSDOF 4
ENDMDL
MODEL 7
REMARK VINA RESULT:    -6.758      2.521      5.154
REMARK INTER + INTRA:          -9.175
REMARK INTER:                  -8.351
REMARK INTRA:                  -0.824
REMARK UNBOUND:                -1.034
REMARK SMILES Cn1c(=O)cc(N2CCC[C@@H](N)C2)n(Cc2ccccc2C#N)c1=O
REMARK SMILES IDX 1 1 2 2 3 3 4 4 5 5 6 6 14 7 24 8 25 9 15 10 16 11 17 12
REMARK SMILES IDX 21 13 18 14 20 15 22 16 19 17 23 18 7 19 8 20 13 21 9 22
REMARK SMILES IDX 11 23 10 24 12 25
REMARK H PARENT 12 26 12 27
ROOT
ATOM      1  C   UNL     1      47.966  32.439  12.602  1.00  0.00    +0.158 C 
ATOM      2  N   UNL     1      47.615  33.265  13.741  1.00  0.00    -0.263 N 
ATOM      3  C   UNL     1      48.565  34.121  14.244  1.00  0.00    +0.258 C 
ATOM      4  O   UNL     1      49.710  34.240  13.813  1.00  0.00    -0.269 OA
ATOM      5  C   UNL     1      48.151  34.943  15.382  1.00  0.00    +0.117 C 
ATOM      6  C   UNL     1      46.945  34.801  15.948  1.00  0.00    +0.118 C 
ATOM      7  N   UNL     1      46.078  33.844  15.440  1.00  0.00    -0.275 N 
ATOM      8  C   UNL     1      46.385  33.045  14.340  1.00  0.00    +0.332 C 
ATOM      9  O   UNL     1      45.618  32.171  13.926  1.00  0.00    -0.247 OA
ENDROOT
BRANCH   7  10
ATOM     10  C   UNL     1      44.775  33.631  16.086  1.00  0.00    +0.166 C 
BRANCH  10  11
ATOM     11  C   UNL     1      43.588  34.031  15.221  1.00  0.00    -0.010 A 
ATOM     12  C   UNL     1      43.500  35.345  14.724  1.00  0.00    +0.007 A 
ATOM     13  C   UNL     1      42.532  33.141  14.940  1.00  0.00    +0.057 A 
ATOM     14  C   UNL     1      42.418  35.752  13.940  1.00  0.00    +0.000 A 
ATOM     15  C   UNL     1      41.448  33.559  14.150  1.00  0.00    +0.020 A 
ATOM     16  C   UNL     1      42.514  31.796  15.443  1.00  0.00    +0.099 C 
ATOM     17  C   UNL     1      41.394  34.858  13.649  1.00  0.00    +0.001 A 
ATOM     18  N   UNL     1      42.481  30.708  15.845  1.00  0.00    -0.192 NA
ENDBRANCH  10  11
ENDBRANCH   7  10
BRANCH   6  19
ATOM     19  N   UNL     1      46.584  35.616  17.030  1.00  0.00    -0.356 N 
ATOM     20  C   UNL     1      47.231  35.420  18.343  1.00  0.00    +0.118 C 
ATOM     21  C   UNL     1      46.123  37.000  16.741  1.00  0.00    +0.136 C 
ATOM     22  C   UNL     1      48.065  36.632  18.732  1.00  0.00    +0.023 C 
ATOM     23  C   UNL     1      45.920  37.828  18.026  1.00  0.00    +0.070 C 
ATOM     24  C   UNL     1      47.226  37.908  18.831  1.00  0.00    +0.022 C 
BRANCH  23  25
ATOM     25  N   UNL     1      45.415  39.178  17.751  1.00  0.00    -0.326 NA
ATOM     26  H   UNL     1      44.952  39.190  16.843  1.00  0.00    +0.119 HD
ATOM     27  H   UNL     1      44.705  39.438  18.436  1.00  0.00    +0.119 HD
ENDBRANCH  23  25
ENDBRANCH   6  19
TORSDOF 4
ENDMDL
MODEL 8
REMARK VINA RESULT:    -6.640      1.725      2.276
REMARK INTER + INTRA:          -9.033
REMARK INTER:                  -7.967
REMARK INTRA:                  -1.066
REMARK UNBOUND:                -1.034
REMARK SMILES Cn1c(=O)cc(N2CCC[C@@H](N)C2)n(Cc2ccccc2C#N)c1=O
REMARK SMILES IDX 1 1 2 2 3 3 4 4 5 5 6 6 14 7 24 8 25 9 15 10 16 11 17 12
REMARK SMILES IDX 21 13 18 14 20 15 22 16 19 17 23 18 7 19 8 20 13 21 9 22
REMARK SMILES IDX 11 23 10 24 12 25
REMARK H PARENT 12 26 12 27
ROOT
ATOM      1  C   UNL     1      48.185  35.136  18.336  1.00  0.00    +0.158 C 
ATOM      2  N   UNL     1      46.888  35.115  17.689  1.00  0.00    -0.263 N 
ATOM      3  C   UNL     1      46.297  36.314  17.370  1.00  0.00    +0.258 C 
ATOM      4  O   UNL     1      46.776  37.422  17.600  1.00  0.00    -0.269 OA
ATOM      5  C   UNL     1      44.996  36.232  16.704  1.00  0.00    +0.117 C 
ATOM      6  C   UNL     1      44.386  35.057  16.499  1.00  0.00    +0.118 C 
ATOM      7  N   UNL     1      45.006  33.897  16.940  1.00  0.00    -0.275 N 
ATOM      8  C   UNL     1      46.257  33.887  17.553  1.00  0.00    +0.332 C 
ATOM      9  O   UNL     1      46.777  32.851  17.975  1.00  0.00    -0.247 OA
ENDROOT
BRANCH   7  10
ATOM     10  C   UNL     1      44.324  32.605  16.779  1.00  0.00    +0.166 C 
BRANCH  10  11
ATOM     11  C   UNL     1      44.390  32.046  15.365  1.00  0.00    -0.010 A 
ATOM     12  C   UNL     1      45.633  31.952  14.711  1.00  0.00    +0.007 A 
ATOM     13  C   UNL     1      43.233  31.664  14.656  1.00  0.00    +0.057 A 
ATOM     14  C   UNL     1      45.730  31.459  13.408  1.00  0.00    +0.000 A 
ATOM     15  C   UNL     1      43.341  31.168  13.346  1.00  0.00    +0.020 A 
ATOM     16  C   UNL     1      41.920  31.768  15.226  1.00  0.00    +0.099 C 
ATOM     17  C   UNL     1      44.585  31.062  12.726  1.00  0.00    +0.001 A 
ATOM     18  N   UNL     1      40.851  31.850  15.670  1.00  0.00    -0.192 NA
ENDBRANCH  10  11
ENDBRANCH   7  10
BRANCH   6  19
ATOM     19  N   UNL     1      43.145  35.023  15.847  1.00  0.00    -0.356 N 
ATOM     20  C   UNL     1      41.907  35.261  16.615  1.00  0.00    +0.118 C 
ATOM     21  C   UNL     1      43.097  35.412  14.413  1.00  0.00    +0.136 C 
ATOM     22  C   UNL     1      41.216  36.540  16.162  1.00  0.00    +0.023 C 
ATOM     23  C   UNL     1      41.653  35.486  13.876  1.00  0.00    +0.070 C 
ATOM     24  C   UNL     1      40.826  36.498  14.683  1.00  0.00    +0.022 C 
BRANCH  23  25
ATOM     25  N   UNL     1      41.600  35.819  12.448  1.00  0.00    -0.326 NA
ATOM     26  H   UNL     1      41.261  36.774  12.334  1.00  0.00    +0.119 HD
ATOM     27  H   UNL     1      42.536  35.799  12.044  1.00  0.00    +0.119 HD
ENDBRANCH  23  25
ENDBRANCH   6  19
TORSDOF 4
ENDMDL
MODEL 9
REMARK VINA RESULT:    -6.596      3.896      5.779
REMARK INTER + INTRA:          -8.980
REMARK INTER:                  -8.121
REMARK INTRA:                  -0.859
REMARK UNBOUND:                -1.034
REMARK SMILES Cn1c(=O)cc(N2CCC[C@@H](N)C2)n(Cc2ccccc2C#N)c1=O
REMARK SMILES IDX 1 1 2 2 3 3 4 4 5 5 6 6 14 7 24 8 25 9 15 10 16 11 17 12
REMARK SMILES IDX 21 13 18 14 20 15 22 16 19 17 23 18 7 19 8 20 13 21 9 22
REMARK SMILES IDX 11 23 10 24 12 25
REMARK H PARENT 12 26 12 27
ROOT
ATOM      1  C   UNL     1      46.140  29.844  16.420  1.00  0.00    +0.158 C 
ATOM      2  N   UNL     1      45.079  30.762  16.054  1.00  0.00    -0.263 N 
ATOM      3  C   UNL     1      45.217  32.088  16.386  1.00  0.00    +0.258 C 
ATOM      4  O   UNL     1      46.174  32.569  16.990  1.00  0.00    -0.269 OA
ATOM      5  C   UNL     1      44.124  32.971  15.977  1.00  0.00    +0.117 C 
ATOM      6  C   UNL     1      43.019  32.493  15.388  1.00  0.00    +0.118 C 
ATOM      7  N   UNL     1      42.914  31.126  15.175  1.00  0.00    -0.275 N 
ATOM      8  C   UNL     1      43.923  30.224  15.507  1.00  0.00    +0.332 C 
ATOM      9  O   UNL     1      43.798  29.007  15.346  1.00  0.00    -0.247 OA
ENDROOT
BRANCH   7  10
ATOM     10  C   UNL     1      41.684  30.576  14.588  1.00  0.00    +0.166 C 
BRANCH  10  11
ATOM     11  C   UNL     1      41.817  30.207  13.117  1.00  0.00    -0.010 A 
ATOM     12  C   UNL     1      42.289  31.163  12.199  1.00  0.00    +0.007 A 
ATOM     13  C   UNL     1      41.430  28.944  12.625  1.00  0.00    +0.057 A 
ATOM     14  C   UNL     1      42.410  30.864  10.840  1.00  0.00    +0.000 A 
ATOM     15  C   UNL     1      41.555  28.652  11.256  1.00  0.00    +0.020 A 
ATOM     16  C   UNL     1      40.895  27.923  13.480  1.00  0.00    +0.099 C 
ATOM     17  C   UNL     1      42.047  29.607  10.368  1.00  0.00    +0.001 A 
ATOM     18  N   UNL     1      40.457  27.088  14.157  1.00  0.00    -0.192 NA
ENDBRANCH  10  11
ENDBRANCH   7  10
BRANCH   6  19
ATOM     19  N   UNL     1      42.001  33.376  15.002  1.00  0.00    -0.356 N 
ATOM     20  C   UNL     1      41.103  33.952  16.023  1.00  0.00    +0.118 C 
ATOM     21  C   UNL     1      42.222  34.214  13.794  1.00  0.00    +0.136 C 
ATOM     22  C   UNL     1      41.283  35.460  16.126  1.00  0.00    +0.023 C 
ATOM     23  C   UNL     1      41.096  35.247  13.586  1.00  0.00    +0.070 C 
ATOM     24  C   UNL     1      40.978  36.173  14.807  1.00  0.00    +0.022 C 
BRANCH  23  25
ATOM     25  N   UNL     1      41.281  36.043  12.367  1.00  0.00    -0.326 NA
ATOM     26  H   UNL     1      40.948  35.514  11.562  1.00  0.00    +0.119 HD
ATOM     27  H   UNL     1      40.712  36.889  12.406  1.00  0.00    +0.119 HD
ENDBRANCH  23  25
ENDBRANCH   6  19
TORSDOF 4
ENDMDL
