MODEL 1
REMARK VINA RESULT:    -8.173      0.000      0.000
REMARK INTER + INTRA:          -8.877
REMARK INTER:                  -8.650
REMARK INTRA:                  -0.227
REMARK UNBOUND:                -0.227
REMARK SMILES O=c1cc(-c2ccccc2)oc2ccccc12
REMARK SMILES IDX 1 1 2 2 3 3 4 4 11 5 12 6 13 7 14 8 15 9 16 10 17 11 5 12
REMARK SMILES IDX 6 13 10 14 7 15 9 16 8 17
REMARK H PARENT
ROOT
ATOM      1  O   UNL     1      39.380  33.225  16.238  1.00  0.00    -0.289 OA
ATOM      2  C   UNL     1      40.021  34.115  15.694  1.00  0.00    +0.193 C 
ATOM      3  C   UNL     1      41.455  34.299  15.979  1.00  0.00    +0.100 C 
ATOM      4  C   UNL     1      42.141  35.280  15.370  1.00  0.00    +0.138 C 
ATOM      5  O   UNL     1      41.555  36.157  14.461  1.00  0.00    -0.456 OA
ATOM      6  C   UNL     1      40.223  36.024  14.165  1.00  0.00    +0.138 A 
ATOM      7  C   UNL     1      39.680  36.925  13.248  1.00  0.00    +0.048 A 
ATOM      8  C   UNL     1      38.328  36.839  12.907  1.00  0.00    +0.004 A 
ATOM      9  C   UNL     1      37.521  35.855  13.481  1.00  0.00    +0.001 A 
ATOM     10  C   UNL     1      38.064  34.954  14.397  1.00  0.00    +0.016 A 
ATOM     11  C   UNL     1      39.417  35.045  14.734  1.00  0.00    +0.065 A 
ENDROOT
BRANCH   4  12
ATOM     12  C   UNL     1      43.593  35.534  15.602  1.00  0.00    +0.017 A 
ATOM     13  C   UNL     1      44.610  34.793  14.973  1.00  0.00    +0.012 A 
ATOM     14  C   UNL     1      43.998  36.554  16.484  1.00  0.00    +0.012 A 
ATOM     15  C   UNL     1      45.963  35.058  15.214  1.00  0.00    +0.001 A 
ATOM     16  C   UNL     1      45.350  36.821  16.726  1.00  0.00    +0.001 A 
ATOM     17  C   UNL     1      46.334  36.072  16.090  1.00  0.00    +0.000 A 
ENDBRANCH   4  12
TORSDOF 1
ENDMDL
MODEL 2
REMARK VINA RESULT:    -7.766      1.678      2.526
REMARK INTER + INTRA:          -8.447
REMARK INTER:                  -8.193
REMARK INTRA:                  -0.254
REMARK UNBOUND:                -0.227
REMARK SMILES O=c1cc(-c2ccccc2)oc2ccccc12
REMARK SMILES IDX 1 1 2 2 3 3 4 4 11 5 12 6 13 7 14 8 15 9 16 10 17 11 5 12
REMARK SMILES IDX 6 13 10 14 7 15 9 16 8 17
REMARK H PARENT
ROOT
ATOM      1  O   UNL     1      41.283  35.869  17.548  1.00  0.00    -0.289 OA
ATOM      2  C   UNL     1      42.060  35.799  16.605  1.00  0.00    +0.193 C 
ATOM      3  C   UNL     1      43.516  35.741  16.825  1.00  0.00    +0.100 C 
ATOM      4  C   UNL     1      44.353  35.664  15.778  1.00  0.00    +0.138 C 
ATOM      5  O   UNL     1      43.907  35.637  14.458  1.00  0.00    -0.456 OA
ATOM      6  C   UNL     1      42.561  35.689  14.205  1.00  0.00    +0.138 A 
ATOM      7  C   UNL     1      42.161  35.658  12.868  1.00  0.00    +0.048 A 
ATOM      8  C   UNL     1      40.803  35.709  12.547  1.00  0.00    +0.004 A 
ATOM      9  C   UNL     1      39.845  35.789  13.560  1.00  0.00    +0.001 A 
ATOM     10  C   UNL     1      40.244  35.820  14.897  1.00  0.00    +0.016 A 
ATOM     11  C   UNL     1      41.605  35.769  15.211  1.00  0.00    +0.065 A 
ENDROOT
BRANCH   4  12
ATOM     12  C   UNL     1      45.837  35.601  15.914  1.00  0.00    +0.017 A 
ATOM     13  C   UNL     1      46.650  34.814  15.078  1.00  0.00    +0.012 A 
ATOM     14  C   UNL     1      46.486  36.352  16.913  1.00  0.00    +0.012 A 
ATOM     15  C   UNL     1      48.040  34.778  15.234  1.00  0.00    +0.001 A 
ATOM     16  C   UNL     1      47.876  36.318  17.070  1.00  0.00    +0.001 A 
ATOM     17  C   UNL     1      48.654  35.530  16.229  1.00  0.00    +0.000 A 
ENDBRANCH   4  12
TORSDOF 1
ENDMDL
MODEL 3
REMARK VINA RESULT:    -7.732      2.219      6.752
REMARK INTER + INTRA:          -8.411
REMARK INTER:                  -8.144
REMARK INTRA:                  -0.267
REMARK UNBOUND:                -0.227
REMARK SMILES O=c1cc(-c2ccccc2)oc2ccccc12
REMARK SMILES IDX 1 1 2 2 3 3 4 4 11 5 12 6 13 7 14 8 15 9 16 10 17 11 5 12
REMARK SMILES IDX 6 13 10 14 7 15 9 16 8 17
REMARK H PARENT
ROOT
ATOM      1  O   UNL     1      45.731  37.197  18.006  1.00  0.00    -0.289 OA
ATOM      2  C   UNL     1      45.497  36.588  16.970  1.00  0.00    +0.193 C 
ATOM      3  C   UNL     1      44.143  36.573  16.389  1.00  0.00    +0.100 C 
ATOM      4  C   UNL     1      43.907  35.901  15.251  1.00  0.00    +0.138 C 
ATOM      5  O   UNL     1      44.899  35.197  14.572  1.00  0.00    -0.456 OA
ATOM      6  C   UNL     1      46.174  35.183  15.076  1.00  0.00    +0.138 A 
ATOM      7  C   UNL     1      47.134  34.465  14.362  1.00  0.00    +0.048 A 
ATOM      8  C   UNL     1      48.450  34.414  14.825  1.00  0.00    +0.004 A 
ATOM      9  C   UNL     1      48.807  35.078  16.000  1.00  0.00    +0.001 A 
ATOM     10  C   UNL     1      47.847  35.796  16.714  1.00  0.00    +0.016 A 
ATOM     11  C   UNL     1      46.532  35.844  16.245  1.00  0.00    +0.065 A 
ENDROOT
BRANCH   4  12
ATOM     12  C   UNL     1      42.567  35.835  14.597  1.00  0.00    +0.017 A 
ATOM     13  C   UNL     1      41.392  36.305  15.211  1.00  0.00    +0.012 A 
ATOM     14  C   UNL     1      42.438  35.284  13.308  1.00  0.00    +0.012 A 
ATOM     15  C   UNL     1      40.151  36.227  14.568  1.00  0.00    +0.001 A 
ATOM     16  C   UNL     1      41.199  35.206  12.664  1.00  0.00    +0.001 A 
ATOM     17  C   UNL     1      40.054  35.678  13.295  1.00  0.00    +0.000 A 
ENDBRANCH   4  12
TORSDOF 1
ENDMDL
MODEL 4
REMARK VINA RESULT:    -7.724      2.257      6.246
REMARK INTER + INTRA:          -8.402
REMARK INTER:                  -8.179
REMARK INTRA:                  -0.223
REMARK UNBOUND:                -0.227
REMARK SMILES O=c1cc(-c2ccccc2)oc2ccccc12
REMARK SMILES IDX 1 1 2 2 3 3 4 4 11 5 12 6 13 7 14 8 15 9 16 10 17 11 5 12
REMARK SMILES IDX 6 13 10 14 7 15 9 16 8 17
REMARK H PARENT
ROOT
ATOM      1  O   UNL     1      44.559  33.191  18.254  1.00  0.00    -0.289 OA
ATOM      2  C   UNL     1      44.406  34.234  17.629  1.00  0.00    +0.193 C 
ATOM      3  C   UNL     1      43.331  34.367  16.631  1.00  0.00    +0.100 C 
ATOM      4  C   UNL     1      43.178  35.518  15.957  1.00  0.00    +0.138 C 
ATOM      5  O   UNL     1      44.003  36.623  16.155  1.00  0.00    -0.456 OA
ATOM      6  C   UNL     1      45.017  36.545  17.075  1.00  0.00    +0.138 A 
ATOM      7  C   UNL     1      45.817  37.676  17.240  1.00  0.00    +0.048 A 
ATOM      8  C   UNL     1      46.866  37.656  18.162  1.00  0.00    +0.004 A 
ATOM      9  C   UNL     1      47.115  36.509  18.918  1.00  0.00    +0.001 A 
ATOM     10  C   UNL     1      46.315  35.378  18.753  1.00  0.00    +0.016 A 
ATOM     11  C   UNL     1      45.267  35.404  17.829  1.00  0.00    +0.065 A 
ENDROOT
BRANCH   4  12
ATOM     12  C   UNL     1      42.116  35.736  14.930  1.00  0.00    +0.017 A 
ATOM     13  C   UNL     1      40.912  36.408  15.206  1.00  0.00    +0.012 A 
ATOM     14  C   UNL     1      42.298  35.261  13.617  1.00  0.00    +0.012 A 
ATOM     15  C   UNL     1      39.937  36.594  14.219  1.00  0.00    +0.001 A 
ATOM     16  C   UNL     1      41.325  35.446  12.629  1.00  0.00    +0.001 A 
ATOM     17  C   UNL     1      40.143  36.114  12.930  1.00  0.00    +0.000 A 
ENDBRANCH   4  12
TORSDOF 1
ENDMDL
MODEL 5
REMARK VINA RESULT:    -7.594      4.512      5.557
REMARK INTER + INTRA:          -8.264
REMARK INTER:                  -8.003
REMARK INTRA:                  -0.262
REMARK UNBOUND:                -0.227
REMARK SMILES O=c1cc(-c2ccccc2)oc2ccccc12
REMARK SMILES IDX 1 1 2 2 3 3 4 4 11 5 12 6 13 7 14 8 15 9 16 10 17 11 5 12
REMARK SMILES IDX 6 13 10 14 7 15 9 16 8 17
REMARK H PARENT
ROOT
ATOM      1  O   UNL     1      43.079  32.718  16.229  1.00  0.00    -0.289 OA
ATOM      2  C   UNL     1      42.724  32.851  15.064  1.00  0.00    +0.193 C 
ATOM      3  C   UNL     1      43.025  31.819  14.057  1.00  0.00    +0.100 C 
ATOM      4  C   UNL     1      42.626  31.982  12.786  1.00  0.00    +0.138 C 
ATOM      5  O   UNL     1      41.925  33.106  12.355  1.00  0.00    -0.456 OA
ATOM      6  C   UNL     1      41.621  34.092  13.257  1.00  0.00    +0.138 A 
ATOM      7  C   UNL     1      40.917  35.199  12.780  1.00  0.00    +0.048 A 
ATOM      8  C   UNL     1      40.580  36.236  13.652  1.00  0.00    +0.004 A 
ATOM      9  C   UNL     1      40.945  36.169  14.998  1.00  0.00    +0.001 A 
ATOM     10  C   UNL     1      41.649  35.063  15.475  1.00  0.00    +0.016 A 
ATOM     11  C   UNL     1      41.983  34.028  14.598  1.00  0.00    +0.065 A 
ENDROOT
BRANCH   4  12
ATOM     12  C   UNL     1      42.891  30.986  11.706  1.00  0.00    +0.017 A 
ATOM     13  C   UNL     1      44.004  30.127  11.713  1.00  0.00    +0.012 A 
ATOM     14  C   UNL     1      42.005  30.877  10.617  1.00  0.00    +0.012 A 
ATOM     15  C   UNL     1      44.222  29.205  10.683  1.00  0.00    +0.001 A 
ATOM     16  C   UNL     1      42.221  29.955   9.586  1.00  0.00    +0.001 A 
ATOM     17  C   UNL     1      43.330  29.118   9.619  1.00  0.00    +0.000 A 
ENDBRANCH   4  12
TORSDOF 1
ENDMDL
MODEL 6
REMARK VINA RESULT:    -7.575      1.419      6.050
REMARK INTER + INTRA:          -8.245
REMARK INTER:                  -8.013
REMARK INTRA:                  -0.232
REMARK UNBOUND:                -0.227
REMARK SMILES O=c1cc(-c2ccccc2)oc2ccccc12
REMARK SMILES IDX 1 1 2 2 3 3 4 4 11 5 12 6 13 7 14 8 15 9 16 10 17 11 5 12
REMARK SMILES IDX 6 13 10 14 7 15 9 16 8 17
REMARK H PARENT
ROOT
ATOM      1  O   UNL     1      44.779  32.785  14.189  1.00  0.00    -0.289 OA
ATOM      2  C   UNL     1      44.170  33.776  14.573  1.00  0.00    +0.193 C 
ATOM      3  C   UNL     1      42.742  33.955  14.261  1.00  0.00    +0.100 C 
ATOM      4  C   UNL     1      42.090  35.047  14.692  1.00  0.00    +0.138 C 
ATOM      5  O   UNL     1      42.710  36.048  15.438  1.00  0.00    -0.456 OA
ATOM      6  C   UNL     1      44.038  35.923  15.753  1.00  0.00    +0.138 A 
ATOM      7  C   UNL     1      44.615  36.949  16.502  1.00  0.00    +0.048 A 
ATOM      8  C   UNL     1      45.965  36.879  16.853  1.00  0.00    +0.004 A 
ATOM      9  C   UNL     1      46.737  35.785  16.457  1.00  0.00    +0.001 A 
ATOM     10  C   UNL     1      46.160  34.759  15.708  1.00  0.00    +0.016 A 
ATOM     11  C   UNL     1      44.809  34.835  15.360  1.00  0.00    +0.065 A 
ENDROOT
BRANCH   4  12
ATOM     12  C   UNL     1      40.646  35.306  14.419  1.00  0.00    +0.017 A 
ATOM     13  C   UNL     1      39.613  34.523  14.964  1.00  0.00    +0.012 A 
ATOM     14  C   UNL     1      40.267  36.373  13.583  1.00  0.00    +0.012 A 
ATOM     15  C   UNL     1      38.267  34.793  14.687  1.00  0.00    +0.001 A 
ATOM     16  C   UNL     1      38.922  36.645  13.305  1.00  0.00    +0.001 A 
ATOM     17  C   UNL     1      37.922  35.854  13.858  1.00  0.00    +0.000 A 
ENDBRANCH   4  12
TORSDOF 1
ENDMDL
MODEL 7
REMARK VINA RESULT:    -7.570      2.354      6.853
REMARK INTER + INTRA:          -8.239
REMARK INTER:                  -7.980
REMARK INTRA:                  -0.260
REMARK UNBOUND:                -0.227
REMARK SMILES O=c1cc(-c2ccccc2)oc2ccccc12
REMARK SMILES IDX 1 1 2 2 3 3 4 4 11 5 12 6 13 7 14 8 15 9 16 10 17 11 5 12
REMARK SMILES IDX 6 13 10 14 7 15 9 16 8 17
REMARK H PARENT
ROOT
ATOM      1  O   UNL     1      47.552  34.418  15.213  1.00  0.00    -0.289 OA
ATOM      2  C   UNL     1      46.653  35.171  15.564  1.00  0.00    +0.193 C 
ATOM      3  C   UNL     1      45.319  35.101  14.943  1.00  0.00    +0.100 C 
ATOM      4  C   UNL     1      44.346  35.935  15.343  1.00  0.00    +0.138 C 
ATOM      5  O   UNL     1      44.534  36.889  16.340  1.00  0.00    -0.456 OA
ATOM      6  C   UNL     1      45.759  36.991  16.947  1.00  0.00    +0.138 A 
ATOM      7  C   UNL     1      45.901  37.960  17.940  1.00  0.00    +0.048 A 
ATOM      8  C   UNL     1      47.125  38.111  18.595  1.00  0.00    +0.004 A 
ATOM      9  C   UNL     1      48.207  37.295  18.257  1.00  0.00    +0.001 A 
ATOM     10  C   UNL     1      48.066  36.325  17.264  1.00  0.00    +0.016 A 
ATOM     11  C   UNL     1      46.838  36.179  16.614  1.00  0.00    +0.065 A 
ENDROOT
BRANCH   4  12
ATOM     12  C   UNL     1      42.969  35.930  14.766  1.00  0.00    +0.017 A 
ATOM     13  C   UNL     1      41.831  36.304  15.501  1.00  0.00    +0.012 A 
ATOM     14  C   UNL     1      42.767  35.538  13.429  1.00  0.00    +0.012 A 
ATOM     15  C   UNL     1      40.553  36.288  14.929  1.00  0.00    +0.001 A 
ATOM     16  C   UNL     1      41.491  35.521  12.855  1.00  0.00    +0.001 A 
ATOM     17  C   UNL     1      40.383  35.896  13.605  1.00  0.00    +0.000 A 
ENDBRANCH   4  12
TORSDOF 1
ENDMDL
MODEL 8
REMARK VINA RESULT:    -7.116      5.196      6.404
REMARK INTER + INTRA:          -7.759
REMARK INTER:                  -7.500
REMARK INTRA:                  -0.258
REMARK UNBOUND:                -0.227
REMARK SMILES O=c1cc(-c2ccccc2)oc2ccccc12
REMARK SMILES IDX 1 1 2 2 3 3 4 4 11 5 12 6 13 7 14 8 15 9 16 10 17 11 5 12
REMARK SMILES IDX 6 13 10 14 7 15 9 16 8 17
REMARK H PARENT
ROOT
ATOM      1  O   UNL     1      44.975  29.985  13.067  1.00  0.00    -0.289 OA
ATOM      2  C   UNL     1      44.026  30.602  12.600  1.00  0.00    +0.193 C 
ATOM      3  C   UNL     1      43.491  31.796  13.277  1.00  0.00    +0.100 C 
ATOM      4  C   UNL     1      42.450  32.459  12.748  1.00  0.00    +0.138 C 
ATOM      5  O   UNL     1      41.831  32.068  11.563  1.00  0.00    -0.456 OA
ATOM      6  C   UNL     1      42.295  30.962  10.898  1.00  0.00    +0.138 A 
ATOM      7  C   UNL     1      41.644  30.609   9.716  1.00  0.00    +0.048 A 
ATOM      8  C   UNL     1      42.072  29.492   8.994  1.00  0.00    +0.004 A 
ATOM      9  C   UNL     1      43.148  28.729   9.454  1.00  0.00    +0.001 A 
ATOM     10  C   UNL     1      43.798  29.082  10.636  1.00  0.00    +0.016 A 
ATOM     11  C   UNL     1      43.366  30.201  11.353  1.00  0.00    +0.065 A 
ENDROOT
BRANCH   4  12
ATOM     12  C   UNL     1      41.848  33.676  13.369  1.00  0.00    +0.017 A 
ATOM     13  C   UNL     1      41.787  33.874  14.760  1.00  0.00    +0.012 A 
ATOM     14  C   UNL     1      41.309  34.689  12.553  1.00  0.00    +0.012 A 
ATOM     15  C   UNL     1      41.215  35.028  15.308  1.00  0.00    +0.001 A 
ATOM     16  C   UNL     1      40.737  35.843  13.100  1.00  0.00    +0.001 A 
ATOM     17  C   UNL     1      40.690  36.013  14.479  1.00  0.00    +0.000 A 
ENDBRANCH   4  12
TORSDOF 1
ENDMDL
MODEL 9
REMARK VINA RESULT:    -6.921      2.226      3.535
REMARK INTER + INTRA:          -7.552
REMARK INTER:                  -7.285
REMARK INTRA:                  -0.267
REMARK UNBOUND:                -0.227
REMARK SMILES O=c1cc(-c2ccccc2)oc2ccccc12
REMARK SMILES IDX 1 1 2 2 3 3 4 4 11 5 12 6 13 7 14 8 15 9 16 10 17 11 5 12
REMARK SMILES IDX 6 13 10 14 7 15 9 16 8 17
REMARK H PARENT
ROOT
ATOM      1  O   UNL     1      44.527  33.060  13.853  1.00  0.00    -0.289 OA
ATOM      2  C   UNL     1      44.296  34.050  14.536  1.00  0.00    +0.193 C 
ATOM      3  C   UNL     1      45.353  34.670  15.353  1.00  0.00    +0.100 C 
ATOM      4  C   UNL     1      45.081  35.756  16.094  1.00  0.00    +0.138 C 
ATOM      5  O   UNL     1      43.817  36.342  16.135  1.00  0.00    -0.456 OA
ATOM      6  C   UNL     1      42.803  35.799  15.391  1.00  0.00    +0.138 A 
ATOM      7  C   UNL     1      41.555  36.420  15.463  1.00  0.00    +0.048 A 
ATOM      8  C   UNL     1      40.482  35.913  14.728  1.00  0.00    +0.004 A 
ATOM      9  C   UNL     1      40.655  34.786  13.922  1.00  0.00    +0.001 A 
ATOM     10  C   UNL     1      41.902  34.164  13.849  1.00  0.00    +0.016 A 
ATOM     11  C   UNL     1      42.971  34.678  14.587  1.00  0.00    +0.065 A 
ENDROOT
BRANCH   4  12
ATOM     12  C   UNL     1      46.093  36.445  16.948  1.00  0.00    +0.017 A 
ATOM     13  C   UNL     1      47.459  36.112  16.934  1.00  0.00    +0.012 A 
ATOM     14  C   UNL     1      45.695  37.478  17.818  1.00  0.00    +0.012 A 
ATOM     15  C   UNL     1      48.381  36.778  17.749  1.00  0.00    +0.001 A 
ATOM     16  C   UNL     1      46.615  38.145  18.633  1.00  0.00    +0.001 A 
ATOM     17  C   UNL     1      47.960  37.795  18.599  1.00  0.00    +0.000 A 
ENDBRANCH   4  12
TORSDOF 1
ENDMDL
