MODEL 1
REMARK VINA RESULT:    -8.481      0.000      0.000
REMARK INTER + INTRA:         -10.631
REMARK INTER:                  -9.968
REMARK INTRA:                  -0.663
REMARK UNBOUND:                -0.663
REMARK SMILES Cn1c(=O)c2c(nc(N3CCOCC3)n2Cc2ccccc2)n(C)c1=O
REMARK SMILES IDX 1 1 2 2 3 3 4 4 5 5 6 6 7 7 8 8 15 9 23 10 24 11 25 12 26 13
REMARK SMILES IDX 16 14 17 15 18 16 22 17 19 18 21 19 20 20 9 21 10 22 14 23
REMARK SMILES IDX 11 24 13 25 12 26
REMARK H PARENT
ROOT
ATOM      1  C   UNL     1      41.560  30.128  11.397  1.00  0.00    +0.159 C 
ATOM      2  N   UNL     1      42.047  30.940  12.496  1.00  0.00    -0.261 N 
ATOM      3  C   UNL     1      41.935  32.330  12.375  1.00  0.00    +0.282 C 
ATOM      4  O   UNL     1      41.491  32.894  11.379  1.00  0.00    -0.267 OA
ATOM      5  C   UNL     1      42.429  33.027  13.511  1.00  0.00    +0.154 A 
ATOM      6  C   UNL     1      43.027  32.398  14.560  1.00  0.00    +0.170 A 
ATOM      7  N   UNL     1      43.450  33.272  15.509  1.00  0.00    -0.194 NA
ATOM      8  C   UNL     1      43.117  34.460  15.048  1.00  0.00    +0.208 A 
ATOM      9  N   UNL     1      42.436  34.357  13.847  1.00  0.00    -0.300 N 
ATOM     10  N   UNL     1      43.180  31.032  14.600  1.00  0.00    -0.279 N 
ATOM     11  C   UNL     1      43.851  30.408  15.726  1.00  0.00    +0.157 C 
ATOM     12  C   UNL     1      42.699  30.260  13.543  1.00  0.00    +0.332 C 
ATOM     13  O   UNL     1      42.842  29.034  13.515  1.00  0.00    -0.247 OA
ENDROOT
BRANCH   9  14
ATOM     14  C   UNL     1      41.815  35.443  13.107  1.00  0.00    +0.161 C 
BRANCH  14  15
ATOM     15  C   UNL     1      40.347  35.581  13.435  1.00  0.00    -0.028 A 
ATOM     16  C   UNL     1      39.736  34.722  14.360  1.00  0.00    +0.005 A 
ATOM     17  C   UNL     1      39.568  36.572  12.819  1.00  0.00    +0.005 A 
ATOM     18  C   UNL     1      38.379  34.855  14.664  1.00  0.00    +0.000 A 
ATOM     19  C   UNL     1      38.212  36.702  13.123  1.00  0.00    +0.000 A 
ATOM     20  C   UNL     1      37.619  35.845  14.047  1.00  0.00    +0.000 A 
ENDBRANCH  14  15
ENDBRANCH   9  14
BRANCH   8  21
ATOM     21  N   UNL     1      43.365  35.664  15.636  1.00  0.00    -0.338 N 
ATOM     22  C   UNL     1      42.971  35.731  17.072  1.00  0.00    +0.148 C 
ATOM     23  C   UNL     1      44.754  36.155  15.416  1.00  0.00    +0.148 C 
ATOM     24  C   UNL     1      44.192  35.606  17.992  1.00  0.00    +0.181 C 
ATOM     25  C   UNL     1      45.143  37.197  16.474  1.00  0.00    +0.181 C 
ATOM     26  O   UNL     1      45.140  36.673  17.811  1.00  0.00    -0.378 OA
ENDBRANCH   8  21
TORSDOF 3
ENDMDL
MODEL 2
REMARK VINA RESULT:    -8.245      1.628      5.518
REMARK INTER + INTRA:         -10.353
REMARK INTER:                  -9.664
REMARK INTRA:                  -0.689
REMARK UNBOUND:                -0.663
REMARK SMILES Cn1c(=O)c2c(nc(N3CCOCC3)n2Cc2ccccc2)n(C)c1=O
REMARK SMILES IDX 1 1 2 2 3 3 4 4 5 5 6 6 7 7 8 8 15 9 23 10 24 11 25 12 26 13
REMARK SMILES IDX 16 14 17 15 18 16 22 17 19 18 21 19 20 20 9 21 10 22 14 23
REMARK SMILES IDX 11 24 13 25 12 26
REMARK H PARENT
ROOT
ATOM      1  C   UNL     1      45.453  36.979  17.854  1.00  0.00    +0.159 C 
ATOM      2  N   UNL     1      45.140  35.979  16.852  1.00  0.00    -0.261 N 
ATOM      3  C   UNL     1      43.843  35.456  16.841  1.00  0.00    +0.282 C 
ATOM      4  O   UNL     1      42.976  35.764  17.654  1.00  0.00    -0.267 OA
ATOM      5  C   UNL     1      43.641  34.496  15.812  1.00  0.00    +0.154 A 
ATOM      6  C   UNL     1      44.640  34.075  14.989  1.00  0.00    +0.170 A 
ATOM      7  N   UNL     1      44.218  33.129  14.111  1.00  0.00    -0.194 NA
ATOM      8  C   UNL     1      42.943  32.953  14.389  1.00  0.00    +0.208 A 
ATOM      9  N   UNL     1      42.528  33.813  15.392  1.00  0.00    -0.300 N 
ATOM     10  N   UNL     1      45.921  34.566  15.087  1.00  0.00    -0.279 N 
ATOM     11  C   UNL     1      46.961  34.065  14.207  1.00  0.00    +0.157 C 
ATOM     12  C   UNL     1      46.209  35.536  16.048  1.00  0.00    +0.332 C 
ATOM     13  O   UNL     1      47.349  35.984  16.199  1.00  0.00    -0.247 OA
ENDROOT
BRANCH   9  14
ATOM     14  C   UNL     1      41.168  33.986  15.877  1.00  0.00    +0.161 C 
BRANCH  14  15
ATOM     15  C   UNL     1      40.328  34.800  14.922  1.00  0.00    -0.028 A 
ATOM     16  C   UNL     1      40.929  35.684  14.014  1.00  0.00    +0.005 A 
ATOM     17  C   UNL     1      38.929  34.686  14.925  1.00  0.00    +0.005 A 
ATOM     18  C   UNL     1      40.150  36.433  13.129  1.00  0.00    +0.000 A 
ATOM     19  C   UNL     1      38.152  35.435  14.040  1.00  0.00    +0.000 A 
ATOM     20  C   UNL     1      38.763  36.307  13.142  1.00  0.00    +0.000 A 
ENDBRANCH  14  15
ENDBRANCH   9  14
BRANCH   8  21
ATOM     21  N   UNL     1      42.089  32.074  13.793  1.00  0.00    -0.338 N 
ATOM     22  C   UNL     1      42.066  32.163  12.306  1.00  0.00    +0.148 C 
ATOM     23  C   UNL     1      42.263  30.671  14.265  1.00  0.00    +0.148 C 
ATOM     24  C   UNL     1      42.874  31.026  11.666  1.00  0.00    +0.181 C 
ATOM     25  C   UNL     1      41.687  29.675  13.248  1.00  0.00    +0.181 C 
ATOM     26  O   UNL     1      42.345  29.723  11.974  1.00  0.00    -0.378 OA
ENDBRANCH   8  21
TORSDOF 3
ENDMDL
MODEL 3
REMARK VINA RESULT:    -7.334      2.022      5.726
REMARK INTER + INTRA:          -9.283
REMARK INTER:                  -8.399
REMARK INTRA:                  -0.885
REMARK UNBOUND:                -0.663
REMARK SMILES Cn1c(=O)c2c(nc(N3CCOCC3)n2Cc2ccccc2)n(C)c1=O
REMARK SMILES IDX 1 1 2 2 3 3 4 4 5 5 6 6 7 7 8 8 15 9 23 10 24 11 25 12 26 13
REMARK SMILES IDX 16 14 17 15 18 16 22 17 19 18 21 19 20 20 9 21 10 22 14 23
REMARK SMILES IDX 11 24 13 25 12 26
REMARK H PARENT
ROOT
ATOM      1  C   UNL     1      46.563  37.606  18.682  1.00  0.00    +0.159 C 
ATOM      2  N   UNL     1      46.118  36.356  18.099  1.00  0.00    -0.261 N 
ATOM      3  C   UNL     1      45.392  36.419  16.905  1.00  0.00    +0.282 C 
ATOM      4  O   UNL     1      45.077  37.469  16.353  1.00  0.00    -0.267 OA
ATOM      5  C   UNL     1      45.018  35.137  16.415  1.00  0.00    +0.154 A 
ATOM      6  C   UNL     1      45.270  33.986  17.095  1.00  0.00    +0.170 A 
ATOM      7  N   UNL     1      44.788  32.893  16.449  1.00  0.00    -0.194 NA
ATOM      8  C   UNL     1      44.225  33.365  15.356  1.00  0.00    +0.208 A 
ATOM      9  N   UNL     1      44.390  34.736  15.263  1.00  0.00    -0.300 N 
ATOM     10  N   UNL     1      45.925  33.980  18.304  1.00  0.00    -0.279 N 
ATOM     11  C   UNL     1      46.145  32.729  19.007  1.00  0.00    +0.157 C 
ATOM     12  C   UNL     1      46.358  35.188  18.851  1.00  0.00    +0.332 C 
ATOM     13  O   UNL     1      46.919  35.241  19.949  1.00  0.00    -0.247 OA
ENDROOT
BRANCH   9  14
ATOM     14  C   UNL     1      44.007  35.582  14.143  1.00  0.00    +0.161 C 
BRANCH  14  15
ATOM     15  C   UNL     1      42.513  35.795  14.085  1.00  0.00    -0.028 A 
ATOM     16  C   UNL     1      41.803  36.210  15.221  1.00  0.00    +0.005 A 
ATOM     17  C   UNL     1      41.807  35.583  12.891  1.00  0.00    +0.005 A 
ATOM     18  C   UNL     1      40.422  36.411  15.163  1.00  0.00    +0.000 A 
ATOM     19  C   UNL     1      40.427  35.783  12.834  1.00  0.00    +0.000 A 
ATOM     20  C   UNL     1      39.735  36.199  13.970  1.00  0.00    +0.000 A 
ENDBRANCH  14  15
ENDBRANCH   9  14
BRANCH   8  21
ATOM     21  N   UNL     1      43.570  32.650  14.398  1.00  0.00    -0.338 N 
ATOM     22  C   UNL     1      44.453  31.753  13.601  1.00  0.00    +0.148 C 
ATOM     23  C   UNL     1      42.368  31.936  14.912  1.00  0.00    +0.148 C 
ATOM     24  C   UNL     1      44.324  30.294  14.055  1.00  0.00    +0.181 C 
ATOM     25  C   UNL     1      41.978  30.778  13.983  1.00  0.00    +0.181 C 
ATOM     26  O   UNL     1      42.995  29.769  13.880  1.00  0.00    -0.378 OA
ENDBRANCH   8  21
TORSDOF 3
ENDMDL
MODEL 4
REMARK VINA RESULT:    -7.123      1.678      2.107
REMARK INTER + INTRA:          -9.035
REMARK INTER:                  -8.369
REMARK INTRA:                  -0.666
REMARK UNBOUND:                -0.663
REMARK SMILES Cn1c(=O)c2c(nc(N3CCOCC3)n2Cc2ccccc2)n(C)c1=O
REMARK SMILES IDX 1 1 2 2 3 3 4 4 5 5 6 6 7 7 8 8 15 9 23 10 24 11 25 12 26 13
REMARK SMILES IDX 16 14 17 15 18 16 22 17 19 18 21 19 20 20 9 21 10 22 14 23
REMARK SMILES IDX 11 24 13 25 12 26
REMARK H PARENT
ROOT
ATOM      1  C   UNL     1      42.790  29.108  12.004  1.00  0.00    +0.159 C 
ATOM      2  N   UNL     1      43.411  30.208  12.715  1.00  0.00    -0.261 N 
ATOM      3  C   UNL     1      42.572  31.092  13.402  1.00  0.00    +0.282 C 
ATOM      4  O   UNL     1      41.347  31.011  13.399  1.00  0.00    -0.267 OA
ATOM      5  C   UNL     1      43.284  32.124  14.074  1.00  0.00    +0.154 A 
ATOM      6  C   UNL     1      44.633  32.273  13.974  1.00  0.00    +0.170 A 
ATOM      7  N   UNL     1      45.082  33.349  14.672  1.00  0.00    -0.194 NA
ATOM      8  C   UNL     1      44.004  33.879  15.210  1.00  0.00    +0.208 A 
ATOM      9  N   UNL     1      42.879  33.128  14.916  1.00  0.00    -0.300 N 
ATOM     10  N   UNL     1      45.409  31.420  13.225  1.00  0.00    -0.279 N 
ATOM     11  C   UNL     1      46.841  31.638  13.125  1.00  0.00    +0.157 C 
ATOM     12  C   UNL     1      44.803  30.358  12.554  1.00  0.00    +0.332 C 
ATOM     13  O   UNL     1      45.449  29.585  11.841  1.00  0.00    -0.247 OA
ENDROOT
BRANCH   9  14
ATOM     14  C   UNL     1      41.536  33.339  15.433  1.00  0.00    +0.161 C 
BRANCH  14  15
ATOM     15  C   UNL     1      40.771  34.351  14.613  1.00  0.00    -0.028 A 
ATOM     16  C   UNL     1      41.374  34.993  13.522  1.00  0.00    +0.005 A 
ATOM     17  C   UNL     1      39.441  34.668  14.930  1.00  0.00    +0.005 A 
ATOM     18  C   UNL     1      40.662  35.926  12.764  1.00  0.00    +0.000 A 
ATOM     19  C   UNL     1      38.732  35.601  14.172  1.00  0.00    +0.000 A 
ATOM     20  C   UNL     1      39.342  36.228  13.088  1.00  0.00    +0.000 A 
ENDBRANCH  14  15
ENDBRANCH   9  14
BRANCH   8  21
ATOM     21  N   UNL     1      43.941  35.003  15.978  1.00  0.00    -0.338 N 
ATOM     22  C   UNL     1      44.260  34.775  17.415  1.00  0.00    +0.148 C 
ATOM     23  C   UNL     1      44.706  36.149  15.411  1.00  0.00    +0.148 C 
ATOM     24  C   UNL     1      45.683  35.241  17.752  1.00  0.00    +0.181 C 
ATOM     25  C   UNL     1      45.038  37.179  16.500  1.00  0.00    +0.181 C 
ATOM     26  O   UNL     1      45.873  36.652  17.542  1.00  0.00    -0.378 OA
ENDBRANCH   8  21
TORSDOF 3
ENDMDL
MODEL 5
REMARK VINA RESULT:    -6.895      2.786      5.782
REMARK INTER + INTRA:          -8.767
REMARK INTER:                  -7.998
REMARK INTRA:                  -0.768
REMARK UNBOUND:                -0.663
REMARK SMILES Cn1c(=O)c2c(nc(N3CCOCC3)n2Cc2ccccc2)n(C)c1=O
REMARK SMILES IDX 1 1 2 2 3 3 4 4 5 5 6 6 7 7 8 8 15 9 23 10 24 11 25 12 26 13
REMARK SMILES IDX 16 14 17 15 18 16 22 17 19 18 21 19 20 20 9 21 10 22 14 23
REMARK SMILES IDX 11 24 13 25 12 26
REMARK H PARENT
ROOT
ATOM      1  C   UNL     1      39.482  33.928  15.800  1.00  0.00    +0.159 C 
ATOM      2  N   UNL     1      40.889  33.845  15.461  1.00  0.00    -0.261 N 
ATOM      3  C   UNL     1      41.407  32.584  15.146  1.00  0.00    +0.282 C 
ATOM      4  O   UNL     1      40.750  31.548  15.184  1.00  0.00    -0.267 OA
ATOM      5  C   UNL     1      42.790  32.619  14.817  1.00  0.00    +0.154 A 
ATOM      6  C   UNL     1      43.537  33.754  14.892  1.00  0.00    +0.170 A 
ATOM      7  N   UNL     1      44.837  33.534  14.565  1.00  0.00    -0.194 NA
ATOM      8  C   UNL     1      44.905  32.249  14.287  1.00  0.00    +0.208 A 
ATOM      9  N   UNL     1      43.658  31.654  14.373  1.00  0.00    -0.300 N 
ATOM     10  N   UNL     1      42.998  34.958  15.278  1.00  0.00    -0.279 N 
ATOM     11  C   UNL     1      43.842  36.136  15.372  1.00  0.00    +0.157 C 
ATOM     12  C   UNL     1      41.641  35.029  15.592  1.00  0.00    +0.332 C 
ATOM     13  O   UNL     1      41.116  36.078  15.977  1.00  0.00    -0.247 OA
ENDROOT
BRANCH   9  14
ATOM     14  C   UNL     1      43.327  30.282  14.024  1.00  0.00    +0.161 C 
BRANCH  14  15
ATOM     15  C   UNL     1      43.113  30.115  12.538  1.00  0.00    -0.028 A 
ATOM     16  C   UNL     1      43.810  29.133  11.819  1.00  0.00    +0.005 A 
ATOM     17  C   UNL     1      42.211  30.941  11.849  1.00  0.00    +0.005 A 
ATOM     18  C   UNL     1      43.607  28.978  10.447  1.00  0.00    +0.000 A 
ATOM     19  C   UNL     1      42.010  30.785  10.477  1.00  0.00    +0.000 A 
ATOM     20  C   UNL     1      42.707  29.803   9.777  1.00  0.00    +0.000 A 
ENDBRANCH  14  15
ENDBRANCH   9  14
BRANCH   8  21
ATOM     21  N   UNL     1      46.018  31.545  13.936  1.00  0.00    -0.338 N 
ATOM     22  C   UNL     1      47.013  32.333  13.155  1.00  0.00    +0.148 C 
ATOM     23  C   UNL     1      46.648  30.829  15.080  1.00  0.00    +0.148 C 
ATOM     24  C   UNL     1      48.191  32.774  14.034  1.00  0.00    +0.181 C 
ATOM     25  C   UNL     1      48.117  30.498  14.779  1.00  0.00    +0.181 C 
ATOM     26  O   UNL     1      48.929  31.664  14.576  1.00  0.00    -0.378 OA
ENDBRANCH   8  21
TORSDOF 3
ENDMDL
