MODEL 1
REMARK VINA RESULT:    -8.353      0.000      0.000
REMARK INTER + INTRA:         -11.280
REMARK INTER:                 -10.550
REMARK INTRA:                  -0.730
REMARK UNBOUND:                -0.730
REMARK SMILES COc1ccc(N2CCC(N)C(c3cccc(C)c3)C2)cc1OC
REMARK SMILES IDX 3 1 4 2 5 3 6 4 21 5 22 6 2 7 1 8 23 9 24 10 7 11 8 12 20 13
REMARK SMILES IDX 9 14 12 15 10 16 13 17 14 18 19 19 15 20 17 21 16 22 18 23
REMARK SMILES IDX 11 24
REMARK H PARENT 11 25 11 26
ROOT
ATOM      1  C   UNL     1      46.510  36.651  18.678  1.00  0.00    +0.160 A 
ATOM      2  C   UNL     1      45.883  37.320  17.630  1.00  0.00    +0.052 A 
ATOM      3  C   UNL     1      45.066  36.623  16.730  1.00  0.00    +0.030 A 
ATOM      4  C   UNL     1      44.842  35.243  16.840  1.00  0.00    +0.041 A 
ATOM      5  C   UNL     1      45.488  34.588  17.905  1.00  0.00    +0.076 A 
ATOM      6  C   UNL     1      46.311  35.268  18.818  1.00  0.00    +0.162 A 
ENDROOT
BRANCH   1   7
ATOM      7  O   UNL     1      47.325  37.247  19.608  1.00  0.00    -0.493 OA
ATOM      8  C   UNL     1      48.393  38.049  19.127  1.00  0.00    +0.278 C 
ENDBRANCH   1   7
BRANCH   6   9
ATOM      9  O   UNL     1      46.965  34.671  19.870  1.00  0.00    -0.493 OA
ATOM     10  C   UNL     1      46.472  33.422  20.332  1.00  0.00    +0.278 C 
ENDBRANCH   6   9
BRANCH   4  11
ATOM     11  N   UNL     1      44.030  34.559  15.946  1.00  0.00    -0.371 N 
ATOM     12  C   UNL     1      44.577  33.498  15.096  1.00  0.00    +0.118 C 
ATOM     13  C   UNL     1      42.582  34.819  15.885  1.00  0.00    +0.126 C 
ATOM     14  C   UNL     1      43.510  32.449  14.800  1.00  0.00    +0.041 C 
ATOM     15  C   UNL     1      42.031  34.517  14.474  1.00  0.00    +0.055 C 
ATOM     16  C   UNL     1      42.290  33.037  14.079  1.00  0.00    +0.061 C 
BRANCH  15  17
ATOM     17  C   UNL     1      40.560  34.902  14.355  1.00  0.00    -0.041 A 
ATOM     18  C   UNL     1      39.602  34.226  15.122  1.00  0.00    +0.004 A 
ATOM     19  C   UNL     1      40.130  35.923  13.489  1.00  0.00    +0.007 A 
ATOM     20  C   UNL     1      38.249  34.550  15.017  1.00  0.00    +0.001 A 
ATOM     21  C   UNL     1      38.774  36.264  13.390  1.00  0.00    -0.051 A 
ATOM     22  C   UNL     1      37.835  35.559  14.149  1.00  0.00    +0.003 A 
ATOM     23  C   UNL     1      38.329  37.335  12.437  1.00  0.00    +0.044 C 
ENDBRANCH  15  17
BRANCH  16  24
ATOM     24  N   UNL     1      42.436  32.909  12.616  1.00  0.00    -0.327 NA
ATOM     25  H   UNL     1      42.617  31.939  12.361  1.00  0.00    +0.119 HD
ATOM     26  H   UNL     1      41.568  33.177  12.155  1.00  0.00    +0.119 HD
ENDBRANCH  16  24
ENDBRANCH   4  11
TORSDOF 5
ENDMDL
MODEL 2
REMARK VINA RESULT:    -7.812      1.842      3.427
REMARK INTER + INTRA:         -10.596
REMARK INTER:                  -9.852
REMARK INTRA:                  -0.744
REMARK UNBOUND:                -0.730
REMARK SMILES COc1ccc(N2CCC(N)C(c3cccc(C)c3)C2)cc1OC
REMARK SMILES IDX 3 1 4 2 5 3 6 4 21 5 22 6 2 7 1 8 23 9 24 10 7 11 8 12 20 13
REMARK SMILES IDX 9 14 12 15 10 16 13 17 14 18 19 19 15 20 17 21 16 22 18 23
REMARK SMILES IDX 11 24
REMARK H PARENT 11 25 11 26
ROOT
ATOM      1  C   UNL     1      46.800  36.616  18.464  1.00  0.00    +0.160 A 
ATOM      2  C   UNL     1      46.208  37.466  17.533  1.00  0.00    +0.052 A 
ATOM      3  C   UNL     1      45.050  37.073  16.848  1.00  0.00    +0.030 A 
ATOM      4  C   UNL     1      44.441  35.829  17.065  1.00  0.00    +0.041 A 
ATOM      5  C   UNL     1      45.058  34.986  18.007  1.00  0.00    +0.076 A 
ATOM      6  C   UNL     1      46.219  35.360  18.705  1.00  0.00    +0.162 A 
ENDROOT
BRANCH   1   7
ATOM      7  O   UNL     1      47.931  36.912  19.183  1.00  0.00    -0.493 OA
ATOM      8  C   UNL     1      48.187  38.279  19.470  1.00  0.00    +0.278 C 
ENDBRANCH   1   7
BRANCH   6   9
ATOM      9  O   UNL     1      46.859  34.570  19.631  1.00  0.00    -0.493 OA
ATOM     10  C   UNL     1      46.076  33.632  20.353  1.00  0.00    +0.278 C 
ENDBRANCH   6   9
BRANCH   4  11
ATOM     11  N   UNL     1      43.292  35.447  16.384  1.00  0.00    -0.371 N 
ATOM     12  C   UNL     1      42.080  36.268  16.441  1.00  0.00    +0.118 C 
ATOM     13  C   UNL     1      43.285  34.257  15.517  1.00  0.00    +0.126 C 
ATOM     14  C   UNL     1      41.282  36.130  15.147  1.00  0.00    +0.041 C 
ATOM     15  C   UNL     1      41.867  33.650  15.434  1.00  0.00    +0.055 C 
ATOM     16  C   UNL     1      40.850  34.683  14.874  1.00  0.00    +0.061 C 
BRANCH  15  17
ATOM     17  C   UNL     1      41.863  32.344  14.647  1.00  0.00    -0.041 A 
ATOM     18  C   UNL     1      41.620  31.135  15.312  1.00  0.00    +0.004 A 
ATOM     19  C   UNL     1      42.098  32.314  13.262  1.00  0.00    +0.007 A 
ATOM     20  C   UNL     1      41.628  29.926  14.615  1.00  0.00    +0.001 A 
ATOM     21  C   UNL     1      42.092  31.105  12.552  1.00  0.00    -0.051 A 
ATOM     22  C   UNL     1      41.871  29.909  13.243  1.00  0.00    +0.003 A 
ATOM     23  C   UNL     1      42.378  31.088  11.079  1.00  0.00    +0.044 C 
ENDBRANCH  15  17
BRANCH  16  24
ATOM     24  N   UNL     1      39.501  34.428  15.414  1.00  0.00    -0.327 NA
ATOM     25  H   UNL     1      39.500  34.531  16.429  1.00  0.00    +0.119 HD
ATOM     26  H   UNL     1      38.843  35.114  15.048  1.00  0.00    +0.119 HD
ENDBRANCH  16  24
ENDBRANCH   4  11
TORSDOF 5
ENDMDL
MODEL 3
REMARK VINA RESULT:    -7.720      4.046      7.946
REMARK INTER + INTRA:         -10.480
REMARK INTER:                 -10.048
REMARK INTRA:                  -0.433
REMARK UNBOUND:                -0.730
REMARK SMILES COc1ccc(N2CCC(N)C(c3cccc(C)c3)C2)cc1OC
REMARK SMILES IDX 3 1 4 2 5 3 6 4 21 5 22 6 2 7 1 8 23 9 24 10 7 11 8 12 20 13
REMARK SMILES IDX 9 14 12 15 10 16 13 17 14 18 19 19 15 20 17 21 16 22 18 23
REMARK SMILES IDX 11 24
REMARK H PARENT 11 25 11 26
ROOT
ATOM      1  C   UNL     1      41.889  30.173  11.621  1.00  0.00    +0.160 A 
ATOM      2  C   UNL     1      41.922  31.514  11.245  1.00  0.00    +0.052 A 
ATOM      3  C   UNL     1      41.984  32.522  12.216  1.00  0.00    +0.030 A 
ATOM      4  C   UNL     1      42.016  32.236  13.588  1.00  0.00    +0.041 A 
ATOM      5  C   UNL     1      41.979  30.876  13.945  1.00  0.00    +0.076 A 
ATOM      6  C   UNL     1      41.917  29.849  12.988  1.00  0.00    +0.162 A 
ENDROOT
BRANCH   1   7
ATOM      7  O   UNL     1      41.831  29.118  10.746  1.00  0.00    -0.493 OA
ATOM      8  C   UNL     1      41.885  29.413   9.358  1.00  0.00    +0.278 C 
ENDBRANCH   1   7
BRANCH   6   9
ATOM      9  O   UNL     1      41.875  28.508  13.288  1.00  0.00    -0.493 OA
ATOM     10  C   UNL     1      40.733  28.019  13.976  1.00  0.00    +0.278 C 
ENDBRANCH   6   9
BRANCH   4  11
ATOM     11  N   UNL     1      42.079  33.242  14.545  1.00  0.00    -0.371 N 
ATOM     12  C   UNL     1      40.855  33.847  15.077  1.00  0.00    +0.118 C 
ATOM     13  C   UNL     1      43.368  33.668  15.114  1.00  0.00    +0.126 C 
ATOM     14  C   UNL     1      41.070  34.304  16.517  1.00  0.00    +0.041 C 
ATOM     15  C   UNL     1      43.302  35.140  15.574  1.00  0.00    +0.055 C 
ATOM     16  C   UNL     1      42.193  35.342  16.644  1.00  0.00    +0.061 C 
BRANCH  15  17
ATOM     17  C   UNL     1      44.663  35.640  16.047  1.00  0.00    -0.041 A 
ATOM     18  C   UNL     1      45.823  34.947  15.675  1.00  0.00    +0.004 A 
ATOM     19  C   UNL     1      44.793  36.784  16.853  1.00  0.00    +0.007 A 
ATOM     20  C   UNL     1      47.078  35.377  16.109  1.00  0.00    +0.001 A 
ATOM     21  C   UNL     1      46.051  37.230  17.280  1.00  0.00    -0.051 A 
ATOM     22  C   UNL     1      47.192  36.508  16.915  1.00  0.00    +0.003 A 
ATOM     23  C   UNL     1      46.168  38.435  18.167  1.00  0.00    +0.044 C 
ENDBRANCH  15  17
BRANCH  16  24
ATOM     24  N   UNL     1      41.650  36.711  16.576  1.00  0.00    -0.327 NA
ATOM     25  H   UNL     1      41.477  36.977  15.607  1.00  0.00    +0.119 HD
ATOM     26  H   UNL     1      40.753  36.755  17.057  1.00  0.00    +0.119 HD
ENDBRANCH  16  24
ENDBRANCH   4  11
TORSDOF 5
ENDMDL
MODEL 4
REMARK VINA RESULT:    -7.704      3.802      8.046
REMARK INTER + INTRA:         -10.461
REMARK INTER:                  -9.952
REMARK INTRA:                  -0.508
REMARK UNBOUND:                -0.730
REMARK SMILES COc1ccc(N2CCC(N)C(c3cccc(C)c3)C2)cc1OC
REMARK SMILES IDX 3 1 4 2 5 3 6 4 21 5 22 6 2 7 1 8 23 9 24 10 7 11 8 12 20 13
REMARK SMILES IDX 9 14 12 15 10 16 13 17 14 18 19 19 15 20 17 21 16 22 18 23
REMARK SMILES IDX 11 24
REMARK H PARENT 11 25 11 26
ROOT
ATOM      1  C   UNL     1      40.841  35.500  13.847  1.00  0.00    +0.160 A 
ATOM      2  C   UNL     1      40.907  36.340  14.957  1.00  0.00    +0.052 A 
ATOM      3  C   UNL     1      41.979  36.247  15.854  1.00  0.00    +0.030 A 
ATOM      4  C   UNL     1      43.020  35.324  15.681  1.00  0.00    +0.041 A 
ATOM      5  C   UNL     1      42.930  34.484  14.556  1.00  0.00    +0.076 A 
ATOM      6  C   UNL     1      41.864  34.560  13.644  1.00  0.00    +0.162 A 
ENDROOT
BRANCH   1   7
ATOM      7  O   UNL     1      39.834  35.517  12.915  1.00  0.00    -0.493 OA
ATOM      8  C   UNL     1      38.850  36.534  13.030  1.00  0.00    +0.278 C 
ENDBRANCH   1   7
BRANCH   6   9
ATOM      9  O   UNL     1      41.732  33.759  12.533  1.00  0.00    -0.493 OA
ATOM     10  C   UNL     1      42.186  32.418  12.627  1.00  0.00    +0.278 C 
ENDBRANCH   6   9
BRANCH   4  11
ATOM     11  N   UNL     1      44.080  35.239  16.574  1.00  0.00    -0.371 N 
ATOM     12  C   UNL     1      43.856  35.352  18.017  1.00  0.00    +0.118 C 
ATOM     13  C   UNL     1      45.446  34.949  16.104  1.00  0.00    +0.126 C 
ATOM     14  C   UNL     1      44.890  34.532  18.783  1.00  0.00    +0.041 C 
ATOM     15  C   UNL     1      46.493  35.555  17.063  1.00  0.00    +0.055 C 
ATOM     16  C   UNL     1      46.328  34.988  18.501  1.00  0.00    +0.061 C 
BRANCH  15  17
ATOM     17  C   UNL     1      47.910  35.378  16.528  1.00  0.00    -0.041 A 
ATOM     18  C   UNL     1      48.987  35.961  17.209  1.00  0.00    +0.004 A 
ATOM     19  C   UNL     1      48.173  34.641  15.360  1.00  0.00    +0.007 A 
ATOM     20  C   UNL     1      50.290  35.825  16.729  1.00  0.00    +0.001 A 
ATOM     21  C   UNL     1      49.481  34.487  14.880  1.00  0.00    -0.051 A 
ATOM     22  C   UNL     1      50.536  35.099  15.565  1.00  0.00    +0.003 A 
ATOM     23  C   UNL     1      49.740  33.724  13.614  1.00  0.00    +0.044 C 
ENDBRANCH  15  17
BRANCH  16  24
ATOM     24  N   UNL     1      46.769  35.978  19.502  1.00  0.00    -0.327 NA
ATOM     25  H   UNL     1      47.576  36.496  19.158  1.00  0.00    +0.119 HD
ATOM     26  H   UNL     1      46.030  36.660  19.667  1.00  0.00    +0.119 HD
ENDBRANCH  16  24
ENDBRANCH   4  11
TORSDOF 5
ENDMDL
MODEL 5
REMARK VINA RESULT:    -7.523      3.125      8.088
REMARK INTER + INTRA:         -10.232
REMARK INTER:                  -9.515
REMARK INTRA:                  -0.716
REMARK UNBOUND:                -0.730
REMARK SMILES COc1ccc(N2CCC(N)C(c3cccc(C)c3)C2)cc1OC
REMARK SMILES IDX 3 1 4 2 5 3 6 4 21 5 22 6 2 7 1 8 23 9 24 10 7 11 8 12 20 13
REMARK SMILES IDX 9 14 12 15 10 16 13 17 14 18 19 19 15 20 17 21 16 22 18 23
REMARK SMILES IDX 11 24
REMARK H PARENT 11 25 11 26
ROOT
ATOM      1  C   UNL     1      41.326  35.699  14.123  1.00  0.00    +0.160 A 
ATOM      2  C   UNL     1      41.415  36.454  15.290  1.00  0.00    +0.052 A 
ATOM      3  C   UNL     1      42.394  36.166  16.249  1.00  0.00    +0.030 A 
ATOM      4  C   UNL     1      43.319  35.125  16.083  1.00  0.00    +0.041 A 
ATOM      5  C   UNL     1      43.209  34.374  14.899  1.00  0.00    +0.076 A 
ATOM      6  C   UNL     1      42.234  34.645  13.924  1.00  0.00    +0.162 A 
ENDROOT
BRANCH   1   7
ATOM      7  O   UNL     1      40.404  35.905  13.128  1.00  0.00    -0.493 OA
ATOM      8  C   UNL     1      39.184  36.538  13.484  1.00  0.00    +0.278 C 
ENDBRANCH   1   7
BRANCH   6   9
ATOM      9  O   UNL     1      42.085  33.938  12.754  1.00  0.00    -0.493 OA
ATOM     10  C   UNL     1      42.367  32.547  12.782  1.00  0.00    +0.278 C 
ENDBRANCH   6   9
BRANCH   4  11
ATOM     11  N   UNL     1      44.289  34.847  17.038  1.00  0.00    -0.371 N 
ATOM     12  C   UNL     1      44.136  33.713  17.953  1.00  0.00    +0.118 C 
ATOM     13  C   UNL     1      45.536  35.627  17.101  1.00  0.00    +0.126 C 
ATOM     14  C   UNL     1      45.501  33.154  18.341  1.00  0.00    +0.041 C 
ATOM     15  C   UNL     1      46.100  35.639  18.539  1.00  0.00    +0.055 C 
ATOM     16  C   UNL     1      46.388  34.195  19.037  1.00  0.00    +0.061 C 
BRANCH  15  17
ATOM     17  C   UNL     1      47.319  36.547  18.653  1.00  0.00    -0.041 A 
ATOM     18  C   UNL     1      47.241  37.719  19.417  1.00  0.00    +0.004 A 
ATOM     19  C   UNL     1      48.532  36.243  18.010  1.00  0.00    +0.007 A 
ATOM     20  C   UNL     1      48.339  38.574  19.522  1.00  0.00    +0.001 A 
ATOM     21  C   UNL     1      49.644  37.089  18.124  1.00  0.00    -0.051 A 
ATOM     22  C   UNL     1      49.533  38.265  18.873  1.00  0.00    +0.003 A 
ATOM     23  C   UNL     1      50.920  36.766  17.404  1.00  0.00    +0.044 C 
ENDBRANCH  15  17
BRANCH  16  24
ATOM     24  N   UNL     1      46.240  34.113  20.502  1.00  0.00    -0.327 NA
ATOM     25  H   UNL     1      46.990  34.625  20.964  1.00  0.00    +0.119 HD
ATOM     26  H   UNL     1      45.365  34.550  20.790  1.00  0.00    +0.119 HD
ENDBRANCH  16  24
ENDBRANCH   4  11
TORSDOF 5
ENDMDL
MODEL 6
REMARK VINA RESULT:    -7.447      3.961      7.845
REMARK INTER + INTRA:         -10.136
REMARK INTER:                  -9.681
REMARK INTRA:                  -0.455
REMARK UNBOUND:                -0.730
REMARK SMILES COc1ccc(N2CCC(N)C(c3cccc(C)c3)C2)cc1OC
REMARK SMILES IDX 3 1 4 2 5 3 6 4 21 5 22 6 2 7 1 8 23 9 24 10 7 11 8 12 20 13
REMARK SMILES IDX 9 14 12 15 10 16 13 17 14 18 19 19 15 20 17 21 16 22 18 23
REMARK SMILES IDX 11 24
REMARK H PARENT 11 25 11 26
ROOT
ATOM      1  C   UNL     1      42.923  30.480  11.052  1.00  0.00    +0.160 A 
ATOM      2  C   UNL     1      41.843  31.359  11.080  1.00  0.00    +0.052 A 
ATOM      3  C   UNL     1      41.722  32.303  12.109  1.00  0.00    +0.030 A 
ATOM      4  C   UNL     1      42.666  32.408  13.140  1.00  0.00    +0.041 A 
ATOM      5  C   UNL     1      43.746  31.508  13.093  1.00  0.00    +0.076 A 
ATOM      6  C   UNL     1      43.887  30.554  12.071  1.00  0.00    +0.162 A 
ENDROOT
BRANCH   1   7
ATOM      7  O   UNL     1      43.128  29.525  10.087  1.00  0.00    -0.493 OA
ATOM      8  C   UNL     1      42.189  29.455   9.024  1.00  0.00    +0.278 C 
ENDBRANCH   1   7
BRANCH   6   9
ATOM      9  O   UNL     1      44.922  29.653  11.985  1.00  0.00    -0.493 OA
ATOM     10  C   UNL     1      46.213  30.087  12.386  1.00  0.00    +0.278 C 
ENDBRANCH   6   9
BRANCH   4  11
ATOM     11  N   UNL     1      42.540  33.347  14.156  1.00  0.00    -0.371 N 
ATOM     12  C   UNL     1      41.219  33.801  14.597  1.00  0.00    +0.118 C 
ATOM     13  C   UNL     1      43.723  33.848  14.876  1.00  0.00    +0.126 C 
ATOM     14  C   UNL     1      41.251  34.176  16.075  1.00  0.00    +0.041 C 
ATOM     15  C   UNL     1      43.472  35.273  15.414  1.00  0.00    +0.055 C 
ATOM     16  C   UNL     1      42.251  35.300  16.376  1.00  0.00    +0.061 C 
BRANCH  15  17
ATOM     17  C   UNL     1      44.727  35.860  16.050  1.00  0.00    -0.041 A 
ATOM     18  C   UNL     1      44.618  36.960  16.912  1.00  0.00    +0.004 A 
ATOM     19  C   UNL     1      46.003  35.327  15.798  1.00  0.00    +0.007 A 
ATOM     20  C   UNL     1      45.755  37.523  17.493  1.00  0.00    +0.001 A 
ATOM     21  C   UNL     1      47.148  35.879  16.390  1.00  0.00    -0.051 A 
ATOM     22  C   UNL     1      47.015  36.991  17.227  1.00  0.00    +0.003 A 
ATOM     23  C   UNL     1      48.506  35.318  16.084  1.00  0.00    +0.044 C 
ENDBRANCH  15  17
BRANCH  16  24
ATOM     24  N   UNL     1      41.587  36.617  16.335  1.00  0.00    -0.327 NA
ATOM     25  H   UNL     1      40.602  36.526  16.580  1.00  0.00    +0.119 HD
ATOM     26  H   UNL     1      42.005  37.240  17.023  1.00  0.00    +0.119 HD
ENDBRANCH  16  24
ENDBRANCH   4  11
TORSDOF 5
ENDMDL
MODEL 7
REMARK VINA RESULT:    -7.425      4.823      7.376
REMARK INTER + INTRA:         -10.108
REMARK INTER:                  -9.497
REMARK INTRA:                  -0.612
REMARK UNBOUND:                -0.730
REMARK SMILES COc1ccc(N2CCC(N)C(c3cccc(C)c3)C2)cc1OC
REMARK SMILES IDX 3 1 4 2 5 3 6 4 21 5 22 6 2 7 1 8 23 9 24 10 7 11 8 12 20 13
REMARK SMILES IDX 9 14 12 15 10 16 13 17 14 18 19 19 15 20 17 21 16 22 18 23
REMARK SMILES IDX 11 24
REMARK H PARENT 11 25 11 26
ROOT
ATOM      1  C   UNL     1      40.696  35.487  14.087  1.00  0.00    +0.160 A 
ATOM      2  C   UNL     1      40.868  35.153  12.746  1.00  0.00    +0.052 A 
ATOM      3  C   UNL     1      41.568  33.994  12.387  1.00  0.00    +0.030 A 
ATOM      4  C   UNL     1      42.118  33.128  13.342  1.00  0.00    +0.041 A 
ATOM      5  C   UNL     1      41.934  33.487  14.690  1.00  0.00    +0.076 A 
ATOM      6  C   UNL     1      41.236  34.645  15.072  1.00  0.00    +0.162 A 
ENDROOT
BRANCH   1   7
ATOM      7  O   UNL     1      40.026  36.598  14.535  1.00  0.00    -0.493 OA
ATOM      8  C   UNL     1      38.962  37.091  13.734  1.00  0.00    +0.278 C 
ENDBRANCH   1   7
BRANCH   6   9
ATOM      9  O   UNL     1      41.034  35.037  16.375  1.00  0.00    -0.493 OA
ATOM     10  C   UNL     1      42.033  35.841  16.985  1.00  0.00    +0.278 C 
ENDBRANCH   6   9
BRANCH   4  11
ATOM     11  N   UNL     1      42.809  31.980  12.979  1.00  0.00    -0.371 N 
ATOM     12  C   UNL     1      44.186  31.759  13.430  1.00  0.00    +0.118 C 
ATOM     13  C   UNL     1      42.153  30.913  12.204  1.00  0.00    +0.126 C 
ATOM     14  C   UNL     1      44.463  30.267  13.583  1.00  0.00    +0.041 C 
ATOM     15  C   UNL     1      43.188  30.133  11.363  1.00  0.00    +0.055 C 
ATOM     16  C   UNL     1      44.277  29.495  12.270  1.00  0.00    +0.061 C 
BRANCH  15  17
ATOM     17  C   UNL     1      42.513  29.109  10.457  1.00  0.00    -0.041 A 
ATOM     18  C   UNL     1      42.206  29.452   9.133  1.00  0.00    +0.004 A 
ATOM     19  C   UNL     1      42.186  27.820  10.910  1.00  0.00    +0.007 A 
ATOM     20  C   UNL     1      41.575  28.537   8.290  1.00  0.00    +0.001 A 
ATOM     21  C   UNL     1      41.565  26.890  10.065  1.00  0.00    -0.051 A 
ATOM     22  C   UNL     1      41.248  27.265   8.755  1.00  0.00    +0.003 A 
ATOM     23  C   UNL     1      41.193  25.529  10.576  1.00  0.00    +0.044 C 
ENDBRANCH  15  17
BRANCH  16  24
ATOM     24  N   UNL     1      45.556  29.382  11.543  1.00  0.00    -0.327 NA
ATOM     25  H   UNL     1      46.271  28.974  12.144  1.00  0.00    +0.119 HD
ATOM     26  H   UNL     1      45.450  28.758  10.746  1.00  0.00    +0.119 HD
ENDBRANCH  16  24
ENDBRANCH   4  11
TORSDOF 5
ENDMDL
MODEL 8
REMARK VINA RESULT:    -7.093      2.424      3.999
REMARK INTER + INTRA:          -9.688
REMARK INTER:                  -8.949
REMARK INTRA:                  -0.739
REMARK UNBOUND:                -0.730
REMARK SMILES COc1ccc(N2CCC(N)C(c3cccc(C)c3)C2)cc1OC
REMARK SMILES IDX 3 1 4 2 5 3 6 4 21 5 22 6 2 7 1 8 23 9 24 10 7 11 8 12 20 13
REMARK SMILES IDX 9 14 12 15 10 16 13 17 14 18 19 19 15 20 17 21 16 22 18 23
REMARK SMILES IDX 11 24
REMARK H PARENT 11 25 11 26
ROOT
ATOM      1  C   UNL     1      47.923  36.214  16.857  1.00  0.00    +0.160 A 
ATOM      2  C   UNL     1      47.698  35.203  15.926  1.00  0.00    +0.052 A 
ATOM      3  C   UNL     1      46.391  34.847  15.567  1.00  0.00    +0.030 A 
ATOM      4  C   UNL     1      45.267  35.482  16.115  1.00  0.00    +0.041 A 
ATOM      5  C   UNL     1      45.519  36.497  17.055  1.00  0.00    +0.076 A 
ATOM      6  C   UNL     1      46.821  36.870  17.430  1.00  0.00    +0.162 A 
ENDROOT
BRANCH   1   7
ATOM      7  O   UNL     1      49.163  36.633  17.270  1.00  0.00    -0.493 OA
ATOM      8  C   UNL     1      50.076  35.641  17.717  1.00  0.00    +0.278 C 
ENDBRANCH   1   7
BRANCH   6   9
ATOM      9  O   UNL     1      47.116  37.853  18.345  1.00  0.00    -0.493 OA
ATOM     10  C   UNL     1      46.361  39.054  18.293  1.00  0.00    +0.278 C 
ENDBRANCH   6   9
BRANCH   4  11
ATOM     11  N   UNL     1      43.975  35.125  15.753  1.00  0.00    -0.371 N 
ATOM     12  C   UNL     1      42.829  35.943  16.159  1.00  0.00    +0.118 C 
ATOM     13  C   UNL     1      43.725  33.965  14.881  1.00  0.00    +0.126 C 
ATOM     14  C   UNL     1      41.714  35.851  15.121  1.00  0.00    +0.041 C 
ATOM     15  C   UNL     1      42.331  33.362  15.159  1.00  0.00    +0.055 C 
ATOM     16  C   UNL     1      41.211  34.414  14.925  1.00  0.00    +0.061 C 
BRANCH  15  17
ATOM     17  C   UNL     1      42.104  32.084  14.359  1.00  0.00    -0.041 A 
ATOM     18  C   UNL     1      41.774  30.897  15.027  1.00  0.00    +0.004 A 
ATOM     19  C   UNL     1      42.218  32.057  12.958  1.00  0.00    +0.007 A 
ATOM     20  C   UNL     1      41.578  29.712  14.317  1.00  0.00    +0.001 A 
ATOM     21  C   UNL     1      42.008  30.874  12.237  1.00  0.00    -0.051 A 
ATOM     22  C   UNL     1      41.702  29.698  12.929  1.00  0.00    +0.003 A 
ATOM     23  C   UNL     1      42.166  30.857  10.744  1.00  0.00    +0.044 C 
ENDBRANCH  15  17
BRANCH  16  24
ATOM     24  N   UNL     1      40.053  34.142  15.797  1.00  0.00    -0.327 NA
ATOM     25  H   UNL     1      40.288  34.334  16.770  1.00  0.00    +0.119 HD
ATOM     26  H   UNL     1      39.280  34.759  15.554  1.00  0.00    +0.119 HD
ENDBRANCH  16  24
ENDBRANCH   4  11
TORSDOF 5
ENDMDL
MODEL 9
REMARK VINA RESULT:    -6.960      5.852      8.870
REMARK INTER + INTRA:          -9.521
REMARK INTER:                  -9.020
REMARK INTRA:                  -0.501
REMARK UNBOUND:                -0.730
REMARK SMILES COc1ccc(N2CCC(N)C(c3cccc(C)c3)C2)cc1OC
REMARK SMILES IDX 3 1 4 2 5 3 6 4 21 5 22 6 2 7 1 8 23 9 24 10 7 11 8 12 20 13
REMARK SMILES IDX 9 14 12 15 10 16 13 17 14 18 19 19 15 20 17 21 16 22 18 23
REMARK SMILES IDX 11 24
REMARK H PARENT 11 25 11 26
ROOT
ATOM      1  C   UNL     1      41.414  27.474   9.553  1.00  0.00    +0.160 A 
ATOM      2  C   UNL     1      41.709  28.754   9.090  1.00  0.00    +0.052 A 
ATOM      3  C   UNL     1      42.274  29.707   9.947  1.00  0.00    +0.030 A 
ATOM      4  C   UNL     1      42.568  29.424  11.289  1.00  0.00    +0.041 A 
ATOM      5  C   UNL     1      42.259  28.126  11.735  1.00  0.00    +0.076 A 
ATOM      6  C   UNL     1      41.692  27.155  10.893  1.00  0.00    +0.162 A 
ENDROOT
BRANCH   1   7
ATOM      7  O   UNL     1      40.863  26.475   8.790  1.00  0.00    -0.493 OA
ATOM      8  C   UNL     1      40.494  26.795   7.457  1.00  0.00    +0.278 C 
ENDBRANCH   1   7
BRANCH   6   9
ATOM      9  O   UNL     1      41.371  25.877  11.284  1.00  0.00    -0.493 OA
ATOM     10  C   UNL     1      40.902  25.690  12.612  1.00  0.00    +0.278 C 
ENDBRANCH   6   9
BRANCH   4  11
ATOM     11  N   UNL     1      43.130  30.373  12.132  1.00  0.00    -0.371 N 
ATOM     12  C   UNL     1      44.360  30.083  12.874  1.00  0.00    +0.118 C 
ATOM     13  C   UNL     1      42.557  31.726  12.240  1.00  0.00    +0.126 C 
ATOM     14  C   UNL     1      45.164  31.361  13.093  1.00  0.00    +0.041 C 
ATOM     15  C   UNL     1      42.854  32.336  13.627  1.00  0.00    +0.055 C 
ATOM     16  C   UNL     1      44.384  32.419  13.884  1.00  0.00    +0.061 C 
BRANCH  15  17
ATOM     17  C   UNL     1      42.160  33.682  13.805  1.00  0.00    -0.041 A 
ATOM     18  C   UNL     1      41.445  34.240  12.737  1.00  0.00    +0.004 A 
ATOM     19  C   UNL     1      42.216  34.389  15.019  1.00  0.00    +0.007 A 
ATOM     20  C   UNL     1      40.816  35.478  12.872  1.00  0.00    +0.001 A 
ATOM     21  C   UNL     1      41.574  35.626  15.167  1.00  0.00    -0.051 A 
ATOM     22  C   UNL     1      40.886  36.173  14.078  1.00  0.00    +0.003 A 
ATOM     23  C   UNL     1      41.672  36.383  16.459  1.00  0.00    +0.044 C 
ENDBRANCH  15  17
BRANCH  16  24
ATOM     24  N   UNL     1      44.674  32.312  15.327  1.00  0.00    -0.327 NA
ATOM     25  H   UNL     1      43.807  32.247  15.859  1.00  0.00    +0.119 HD
ATOM     26  H   UNL     1      45.199  31.460  15.515  1.00  0.00    +0.119 HD
ENDBRANCH  16  24
ENDBRANCH   4  11
TORSDOF 5
ENDMDL
