MODEL 1
REMARK VINA RESULT:    -8.284      0.000      0.000
REMARK INTER + INTRA:         -10.516
REMARK INTER:                 -10.221
REMARK INTRA:                  -0.296
REMARK UNBOUND:                -0.296
REMARK SMILES N#C[C@@H]1C[C@@H]2C[C@@H]2N1C(=O)[C@@H](N)C12C[C@H]3C[C@@H](C1)C[C@](O)(C3)C2
REMARK SMILES IDX 13 1 14 2 15 3 16 4 17 5 18 6 19 7 20 8 22 9 23 10 11 11
REMARK SMILES IDX 9 12 10 13 8 14 1 15 2 16 3 17 4 18 5 19 7 20 6 21 12 22
REMARK SMILES IDX 21 25
REMARK H PARENT 12 23 12 24 21 26
ROOT
ATOM      1  C   UNL     1      44.705  35.679  17.088  1.00  0.00    -0.002 C 
ATOM      2  C   UNL     1      45.375  34.662  16.121  1.00  0.00    +0.013 C 
ATOM      3  C   UNL     1      46.873  34.493  16.440  1.00  0.00    -0.007 C 
ATOM      4  C   UNL     1      47.576  35.852  16.299  1.00  0.00    +0.007 C 
ATOM      5  C   UNL     1      46.960  36.865  17.277  1.00  0.00    -0.007 C 
ATOM      6  C   UNL     1      45.463  37.031  16.961  1.00  0.00    +0.013 C 
ATOM      7  C   UNL     1      47.119  36.348  18.711  1.00  0.00    +0.039 C 
ATOM      8  C   UNL     1      46.413  34.993  18.860  1.00  0.00    +0.066 C 
ATOM      9  C   UNL     1      47.032  33.984  17.880  1.00  0.00    +0.039 C 
ATOM     10  C   UNL     1      44.917  35.161  18.541  1.00  0.00    +0.044 C 
ENDROOT
BRANCH   1  11
ATOM     11  C   UNL     1      43.176  35.873  16.822  1.00  0.00    +0.147 C 
BRANCH  11  12
ATOM     12  C   UNL     1      42.537  34.687  16.045  1.00  0.00    +0.241 C 
ATOM     13  O   UNL     1      42.647  33.534  16.475  1.00  0.00    -0.273 OA
BRANCH  12  14
ATOM     14  N   UNL     1      41.852  34.954  14.877  1.00  0.00    -0.322 N 
ATOM     15  N   UNL     1      38.578  34.016  15.557  1.00  0.00    -0.196 NA
ATOM     16  C   UNL     1      39.432  34.705  15.176  1.00  0.00    +0.087 C 
ATOM     17  C   UNL     1      40.522  35.590  14.713  1.00  0.00    +0.189 C 
ATOM     18  C   UNL     1      40.386  35.868  13.194  1.00  0.00    +0.046 C 
ATOM     19  C   UNL     1      41.450  35.044  12.519  1.00  0.00    +0.017 C 
ATOM     20  C   UNL     1      42.352  34.516  13.597  1.00  0.00    +0.090 C 
ATOM     21  C   UNL     1      41.587  33.560  12.725  1.00  0.00    +0.031 C 
ENDBRANCH  12  14
ENDBRANCH  11  12
BRANCH  11  22
ATOM     22  N   UNL     1      42.412  36.061  18.076  1.00  0.00    -0.319 NA
ATOM     23  H   UNL     1      42.511  35.223  18.653  1.00  0.00    +0.119 HD
ATOM     24  H   UNL     1      42.887  36.791  18.618  1.00  0.00    +0.119 HD
ENDBRANCH  11  22
ENDBRANCH   1  11
BRANCH   8  25
ATOM     25  O   UNL     1      46.574  34.535  20.194  1.00  0.00    -0.390 OA
ATOM     26  H   UNL     1      46.989  35.251  20.706  1.00  0.00    +0.211 HD
ENDBRANCH   8  25
TORSDOF 5
ENDMDL
MODEL 2
REMARK VINA RESULT:    -7.820      2.120      6.313
REMARK INTER + INTRA:          -9.945
REMARK INTER:                  -9.461
REMARK INTRA:                  -0.483
REMARK UNBOUND:                -0.296
REMARK SMILES N#C[C@@H]1C[C@@H]2C[C@@H]2N1C(=O)[C@@H](N)C12C[C@H]3C[C@@H](C1)C[C@](O)(C3)C2
REMARK SMILES IDX 13 1 14 2 15 3 16 4 17 5 18 6 19 7 20 8 22 9 23 10 11 11
REMARK SMILES IDX 9 12 10 13 8 14 1 15 2 16 3 17 4 18 5 19 7 20 6 21 12 22
REMARK SMILES IDX 21 25
REMARK H PARENT 12 23 12 24 21 26
ROOT
ATOM      1  C   UNL     1      42.797  35.023  16.094  1.00  0.00    -0.002 C 
ATOM      2  C   UNL     1      41.825  36.226  15.923  1.00  0.00    +0.013 C 
ATOM      3  C   UNL     1      40.841  35.988  14.762  1.00  0.00    -0.007 C 
ATOM      4  C   UNL     1      41.632  35.798  13.459  1.00  0.00    +0.007 C 
ATOM      5  C   UNL     1      42.570  34.587  13.586  1.00  0.00    -0.007 C 
ATOM      6  C   UNL     1      43.551  34.823  14.748  1.00  0.00    +0.013 C 
ATOM      7  C   UNL     1      41.740  33.330  13.873  1.00  0.00    +0.039 C 
ATOM      8  C   UNL     1      40.952  33.511  15.178  1.00  0.00    +0.066 C 
ATOM      9  C   UNL     1      40.017  34.724  15.046  1.00  0.00    +0.039 C 
ATOM     10  C   UNL     1      41.935  33.749  16.338  1.00  0.00    +0.044 C 
ENDROOT
BRANCH   1  11
ATOM     11  C   UNL     1      43.806  35.203  17.274  1.00  0.00    +0.147 C 
BRANCH  11  12
ATOM     12  C   UNL     1      45.090  35.979  16.865  1.00  0.00    +0.241 C 
ATOM     13  O   UNL     1      45.017  37.171  16.548  1.00  0.00    -0.273 OA
BRANCH  12  14
ATOM     14  N   UNL     1      46.297  35.310  16.865  1.00  0.00    -0.322 N 
ATOM     15  N   UNL     1      46.728  34.302  20.161  1.00  0.00    -0.196 NA
ATOM     16  C   UNL     1      46.700  34.186  19.005  1.00  0.00    +0.087 C 
ATOM     17  C   UNL     1      46.642  34.033  17.536  1.00  0.00    +0.189 C 
ATOM     18  C   UNL     1      48.033  33.640  16.976  1.00  0.00    +0.046 C 
ATOM     19  C   UNL     1      48.588  34.877  16.321  1.00  0.00    +0.017 C 
ATOM     20  C   UNL     1      47.471  35.878  16.250  1.00  0.00    +0.090 C 
ATOM     21  C   UNL     1      48.712  36.195  17.036  1.00  0.00    +0.031 C 
ENDBRANCH  12  14
ENDBRANCH  11  12
BRANCH  11  22
ATOM     22  N   UNL     1      43.197  35.904  18.426  1.00  0.00    -0.319 NA
ATOM     23  H   UNL     1      42.970  36.861  18.148  1.00  0.00    +0.119 HD
ATOM     24  H   UNL     1      42.283  35.474  18.599  1.00  0.00    +0.119 HD
ENDBRANCH  11  22
ENDBRANCH   1  11
BRANCH   8  25
ATOM     25  O   UNL     1      40.192  32.337  15.422  1.00  0.00    -0.390 OA
ATOM     26  H   UNL     1      39.383  32.389  14.884  1.00  0.00    +0.211 HD
ENDBRANCH   8  25
TORSDOF 5
ENDMDL
MODEL 3
REMARK VINA RESULT:    -7.768      1.174      2.015
REMARK INTER + INTRA:          -9.880
REMARK INTER:                  -9.547
REMARK INTRA:                  -0.334
REMARK UNBOUND:                -0.296
REMARK SMILES N#C[C@@H]1C[C@@H]2C[C@@H]2N1C(=O)[C@@H](N)C12C[C@H]3C[C@@H](C1)C[C@](O)(C3)C2
REMARK SMILES IDX 13 1 14 2 15 3 16 4 17 5 18 6 19 7 20 8 22 9 23 10 11 11
REMARK SMILES IDX 9 12 10 13 8 14 1 15 2 16 3 17 4 18 5 19 7 20 6 21 12 22
REMARK SMILES IDX 21 25
REMARK H PARENT 12 23 12 24 21 26
ROOT
ATOM      1  C   UNL     1      44.506  35.663  16.978  1.00  0.00    -0.002 C 
ATOM      2  C   UNL     1      45.346  36.966  17.100  1.00  0.00    +0.013 C 
ATOM      3  C   UNL     1      46.837  36.649  17.326  1.00  0.00    -0.007 C 
ATOM      4  C   UNL     1      46.990  35.835  18.620  1.00  0.00    +0.007 C 
ATOM      5  C   UNL     1      46.203  34.520  18.509  1.00  0.00    -0.007 C 
ATOM      6  C   UNL     1      44.714  34.836  18.279  1.00  0.00    +0.013 C 
ATOM      7  C   UNL     1      46.736  33.708  17.322  1.00  0.00    +0.039 C 
ATOM      8  C   UNL     1      46.579  34.515  16.025  1.00  0.00    +0.066 C 
ATOM      9  C   UNL     1      47.367  35.828  16.142  1.00  0.00    +0.039 C 
ATOM     10  C   UNL     1      45.090  34.831  15.799  1.00  0.00    +0.044 C 
ENDROOT
BRANCH   1  11
ATOM     11  C   UNL     1      42.985  35.926  16.727  1.00  0.00    +0.147 C 
BRANCH  11  12
ATOM     12  C   UNL     1      42.296  34.791  15.917  1.00  0.00    +0.241 C 
ATOM     13  O   UNL     1      42.343  33.625  16.323  1.00  0.00    -0.273 OA
BRANCH  12  14
ATOM     14  N   UNL     1      41.638  35.118  14.749  1.00  0.00    -0.322 N 
ATOM     15  N   UNL     1      38.339  34.196  15.323  1.00  0.00    -0.196 NA
ATOM     16  C   UNL     1      39.210  34.889  14.989  1.00  0.00    +0.087 C 
ATOM     17  C   UNL     1      40.320  35.778  14.586  1.00  0.00    +0.189 C 
ATOM     18  C   UNL     1      40.218  36.123  13.079  1.00  0.00    +0.046 C 
ATOM     19  C   UNL     1      41.284  35.314  12.389  1.00  0.00    +0.017 C 
ATOM     20  C   UNL     1      42.158  34.728  13.461  1.00  0.00    +0.090 C 
ATOM     21  C   UNL     1      41.399  33.820  12.534  1.00  0.00    +0.031 C 
ENDBRANCH  12  14
ENDBRANCH  11  12
BRANCH  11  22
ATOM     22  N   UNL     1      42.235  36.105  17.990  1.00  0.00    -0.319 NA
ATOM     23  H   UNL     1      41.722  35.246  18.196  1.00  0.00    +0.119 HD
ATOM     24  H   UNL     1      42.922  36.171  18.748  1.00  0.00    +0.119 HD
ENDBRANCH  11  22
ENDBRANCH   1  11
BRANCH   8  25
ATOM     25  O   UNL     1      47.079  33.743  14.943  1.00  0.00    -0.390 OA
ATOM     26  H   UNL     1      46.835  34.196  14.117  1.00  0.00    +0.211 HD
ENDBRANCH   8  25
TORSDOF 5
ENDMDL
MODEL 4
REMARK VINA RESULT:    -7.349      4.235      6.672
REMARK INTER + INTRA:          -9.363
REMARK INTER:                  -9.352
REMARK INTRA:                  -0.011
REMARK UNBOUND:                -0.296
REMARK SMILES N#C[C@@H]1C[C@@H]2C[C@@H]2N1C(=O)[C@@H](N)C12C[C@H]3C[C@@H](C1)C[C@](O)(C3)C2
REMARK SMILES IDX 13 1 14 2 15 3 16 4 17 5 18 6 19 7 20 8 22 9 23 10 11 11
REMARK SMILES IDX 9 12 10 13 8 14 1 15 2 16 3 17 4 18 5 19 7 20 6 21 12 22
REMARK SMILES IDX 21 25
REMARK H PARENT 12 23 12 24 21 26
ROOT
ATOM      1  C   UNL     1      42.887  30.359  13.378  1.00  0.00    -0.002 C 
ATOM      2  C   UNL     1      41.707  29.348  13.440  1.00  0.00    +0.013 C 
ATOM      3  C   UNL     1      41.696  28.427  12.205  1.00  0.00    -0.007 C 
ATOM      4  C   UNL     1      41.551  29.283  10.938  1.00  0.00    +0.007 C 
ATOM      5  C   UNL     1      42.730  30.263  10.829  1.00  0.00    -0.007 C 
ATOM      6  C   UNL     1      42.744  31.181  12.064  1.00  0.00    +0.013 C 
ATOM      7  C   UNL     1      44.043  29.474  10.772  1.00  0.00    +0.039 C 
ATOM      8  C   UNL     1      44.196  28.621  12.039  1.00  0.00    +0.066 C 
ATOM      9  C   UNL     1      43.015  27.644  12.143  1.00  0.00    +0.039 C 
ATOM     10  C   UNL     1      44.208  29.541  13.273  1.00  0.00    +0.044 C 
ENDROOT
BRANCH   1  11
ATOM     11  C   UNL     1      42.959  31.307  14.619  1.00  0.00    +0.147 C 
BRANCH  11  12
ATOM     12  C   UNL     1      41.609  32.017  14.923  1.00  0.00    +0.241 C 
ATOM     13  O   UNL     1      40.620  31.353  15.249  1.00  0.00    -0.273 OA
BRANCH  12  14
ATOM     14  N   UNL     1      41.547  33.392  14.818  1.00  0.00    -0.322 N 
ATOM     15  N   UNL     1      38.307  34.190  15.780  1.00  0.00    -0.196 NA
ATOM     16  C   UNL     1      39.466  34.273  15.765  1.00  0.00    +0.087 C 
ATOM     17  C   UNL     1      40.941  34.362  15.762  1.00  0.00    +0.189 C 
ATOM     18  C   UNL     1      41.399  35.757  15.266  1.00  0.00    +0.046 C 
ATOM     19  C   UNL     1      41.911  35.557  13.864  1.00  0.00    +0.017 C 
ATOM     20  C   UNL     1      42.012  34.076  13.636  1.00  0.00    +0.090 C 
ATOM     21  C   UNL     1      41.095  34.906  12.781  1.00  0.00    +0.031 C 
ENDBRANCH  12  14
ENDBRANCH  11  12
BRANCH  11  22
ATOM     22  N   UNL     1      43.381  30.590  15.843  1.00  0.00    -0.319 NA
ATOM     23  H   UNL     1      44.211  31.047  16.226  1.00  0.00    +0.119 HD
ATOM     24  H   UNL     1      42.661  30.749  16.556  1.00  0.00    +0.119 HD
ENDBRANCH  11  22
ENDBRANCH   1  11
BRANCH   8  25
ATOM     25  O   UNL     1      45.418  27.901  11.962  1.00  0.00    -0.390 OA
ATOM     26  H   UNL     1      45.879  28.006  12.812  1.00  0.00    +0.211 HD
ENDBRANCH   8  25
TORSDOF 5
ENDMDL
MODEL 5
REMARK VINA RESULT:    -7.235      3.684      6.872
REMARK INTER + INTRA:          -9.222
REMARK INTER:                  -8.909
REMARK INTRA:                  -0.313
REMARK UNBOUND:                -0.296
REMARK SMILES N#C[C@@H]1C[C@@H]2C[C@@H]2N1C(=O)[C@@H](N)C12C[C@H]3C[C@@H](C1)C[C@](O)(C3)C2
REMARK SMILES IDX 13 1 14 2 15 3 16 4 17 5 18 6 19 7 20 8 22 9 23 10 11 11
REMARK SMILES IDX 9 12 10 13 8 14 1 15 2 16 3 17 4 18 5 19 7 20 6 21 12 22
REMARK SMILES IDX 21 25
REMARK H PARENT 12 23 12 24 21 26
ROOT
ATOM      1  C   UNL     1      42.804  30.473  13.513  1.00  0.00    -0.002 C 
ATOM      2  C   UNL     1      44.183  29.858  13.139  1.00  0.00    +0.013 C 
ATOM      3  C   UNL     1      44.062  28.913  11.927  1.00  0.00    -0.007 C 
ATOM      4  C   UNL     1      43.086  27.777  12.269  1.00  0.00    +0.007 C 
ATOM      5  C   UNL     1      41.702  28.355  12.602  1.00  0.00    -0.007 C 
ATOM      6  C   UNL     1      41.823  29.302  13.809  1.00  0.00    +0.013 C 
ATOM      7  C   UNL     1      41.176  29.141  11.395  1.00  0.00    +0.039 C 
ATOM      8  C   UNL     1      42.144  30.283  11.053  1.00  0.00    +0.066 C 
ATOM      9  C   UNL     1      43.526  29.699  10.722  1.00  0.00    +0.039 C 
ATOM     10  C   UNL     1      42.265  31.227  12.262  1.00  0.00    +0.044 C 
ENDROOT
BRANCH   1  11
ATOM     11  C   UNL     1      42.873  31.458  14.725  1.00  0.00    +0.147 C 
BRANCH  11  12
ATOM     12  C   UNL     1      41.681  32.457  14.767  1.00  0.00    +0.241 C 
ATOM     13  O   UNL     1      40.584  32.094  15.204  1.00  0.00    -0.273 OA
BRANCH  12  14
ATOM     14  N   UNL     1      41.880  33.744  14.309  1.00  0.00    -0.322 N 
ATOM     15  N   UNL     1      41.566  35.732  17.139  1.00  0.00    -0.196 NA
ATOM     16  C   UNL     1      42.053  35.341  16.160  1.00  0.00    +0.087 C 
ATOM     17  C   UNL     1      42.683  34.828  14.925  1.00  0.00    +0.189 C 
ATOM     18  C   UNL     1      42.758  35.943  13.851  1.00  0.00    +0.046 C 
ATOM     19  C   UNL     1      41.691  35.623  12.838  1.00  0.00    +0.017 C 
ATOM     20  C   UNL     1      41.191  34.240  13.143  1.00  0.00    +0.090 C 
ATOM     21  C   UNL     1      40.249  35.410  13.210  1.00  0.00    +0.031 C 
ENDBRANCH  12  14
ENDBRANCH  11  12
BRANCH  11  22
ATOM     22  N   UNL     1      42.914  30.745  16.022  1.00  0.00    -0.319 NA
ATOM     23  H   UNL     1      43.498  29.912  15.923  1.00  0.00    +0.119 HD
ATOM     24  H   UNL     1      43.434  31.334  16.680  1.00  0.00    +0.119 HD
ENDBRANCH  11  22
ENDBRANCH   1  11
BRANCH   8  25
ATOM     25  O   UNL     1      41.637  30.994   9.934  1.00  0.00    -0.390 OA
ATOM     26  H   UNL     1      41.626  31.940  10.162  1.00  0.00    +0.211 HD
ENDBRANCH   8  25
TORSDOF 5
ENDMDL
MODEL 6
REMARK VINA RESULT:    -7.230      1.889      2.801
REMARK INTER + INTRA:          -9.216
REMARK INTER:                  -8.757
REMARK INTRA:                  -0.459
REMARK UNBOUND:                -0.296
REMARK SMILES N#C[C@@H]1C[C@@H]2C[C@@H]2N1C(=O)[C@@H](N)C12C[C@H]3C[C@@H](C1)C[C@](O)(C3)C2
REMARK SMILES IDX 13 1 14 2 15 3 16 4 17 5 18 6 19 7 20 8 22 9 23 10 11 11
REMARK SMILES IDX 9 12 10 13 8 14 1 15 2 16 3 17 4 18 5 19 7 20 6 21 12 22
REMARK SMILES IDX 21 25
REMARK H PARENT 12 23 12 24 21 26
ROOT
ATOM      1  C   UNL     1      45.507  36.300  16.998  1.00  0.00    -0.002 C 
ATOM      2  C   UNL     1      46.544  35.535  16.127  1.00  0.00    +0.013 C 
ATOM      3  C   UNL     1      47.865  35.320  16.891  1.00  0.00    -0.007 C 
ATOM      4  C   UNL     1      48.451  36.686  17.279  1.00  0.00    +0.007 C 
ATOM      5  C   UNL     1      47.463  37.446  18.178  1.00  0.00    -0.007 C 
ATOM      6  C   UNL     1      46.142  37.657  17.417  1.00  0.00    +0.013 C 
ATOM      7  C   UNL     1      47.190  36.622  19.442  1.00  0.00    +0.039 C 
ATOM      8  C   UNL     1      46.597  35.258  19.061  1.00  0.00    +0.066 C 
ATOM      9  C   UNL     1      47.590  34.504  18.162  1.00  0.00    +0.039 C 
ATOM     10  C   UNL     1      45.278  35.472  18.298  1.00  0.00    +0.044 C 
ENDROOT
BRANCH   1  11
ATOM     11  C   UNL     1      44.138  36.527  16.278  1.00  0.00    +0.147 C 
BRANCH  11  12
ATOM     12  C   UNL     1      44.035  35.781  14.916  1.00  0.00    +0.241 C 
ATOM     13  O   UNL     1      44.528  36.279  13.899  1.00  0.00    -0.273 OA
BRANCH  12  14
ATOM     14  N   UNL     1      43.384  34.565  14.876  1.00  0.00    -0.322 N 
ATOM     15  N   UNL     1      45.755  32.353  13.633  1.00  0.00    -0.196 NA
ATOM     16  C   UNL     1      44.929  32.735  14.354  1.00  0.00    +0.087 C 
ATOM     17  C   UNL     1      43.894  33.233  15.284  1.00  0.00    +0.189 C 
ATOM     18  C   UNL     1      42.657  32.299  15.269  1.00  0.00    +0.046 C 
ATOM     19  C   UNL     1      41.591  33.026  14.492  1.00  0.00    +0.017 C 
ATOM     20  C   UNL     1      42.072  34.434  14.292  1.00  0.00    +0.090 C 
ATOM     21  C   UNL     1      41.812  33.555  13.101  1.00  0.00    +0.031 C 
ENDBRANCH  12  14
ENDBRANCH  11  12
BRANCH  11  22
ATOM     22  N   UNL     1      42.992  36.107  17.115  1.00  0.00    -0.319 NA
ATOM     23  H   UNL     1      42.154  36.598  16.799  1.00  0.00    +0.119 HD
ATOM     24  H   UNL     1      42.798  35.124  16.898  1.00  0.00    +0.119 HD
ENDBRANCH  11  22
ENDBRANCH   1  11
BRANCH   8  25
ATOM     25  O   UNL     1      46.355  34.516  20.246  1.00  0.00    -0.390 OA
ATOM     26  H   UNL     1      46.968  33.761  20.256  1.00  0.00    +0.211 HD
ENDBRANCH   8  25
TORSDOF 5
ENDMDL
MODEL 7
REMARK VINA RESULT:    -7.036      3.883      6.047
REMARK INTER + INTRA:          -8.978
REMARK INTER:                  -8.773
REMARK INTRA:                  -0.204
REMARK UNBOUND:                -0.296
REMARK SMILES N#C[C@@H]1C[C@@H]2C[C@@H]2N1C(=O)[C@@H](N)C12C[C@H]3C[C@@H](C1)C[C@](O)(C3)C2
REMARK SMILES IDX 13 1 14 2 15 3 16 4 17 5 18 6 19 7 20 8 22 9 23 10 11 11
REMARK SMILES IDX 9 12 10 13 8 14 1 15 2 16 3 17 4 18 5 19 7 20 6 21 12 22
REMARK SMILES IDX 21 25
REMARK H PARENT 12 23 12 24 21 26
ROOT
ATOM      1  C   UNL     1      42.246  32.791  14.619  1.00  0.00    -0.002 C 
ATOM      2  C   UNL     1      43.213  33.677  15.455  1.00  0.00    +0.013 C 
ATOM      3  C   UNL     1      42.640  35.093  15.655  1.00  0.00    -0.007 C 
ATOM      4  C   UNL     1      42.424  35.749  14.283  1.00  0.00    +0.007 C 
ATOM      5  C   UNL     1      41.437  34.915  13.451  1.00  0.00    -0.007 C 
ATOM      6  C   UNL     1      42.007  33.499  13.254  1.00  0.00    +0.013 C 
ATOM      7  C   UNL     1      40.099  34.821  14.195  1.00  0.00    +0.039 C 
ATOM      8  C   UNL     1      40.308  34.160  15.564  1.00  0.00    +0.066 C 
ATOM      9  C   UNL     1      41.295  34.997  16.391  1.00  0.00    +0.039 C 
ATOM     10  C   UNL     1      40.880  32.745  15.365  1.00  0.00    +0.044 C 
ENDROOT
BRANCH   1  11
ATOM     11  C   UNL     1      42.770  31.333  14.402  1.00  0.00    +0.147 C 
BRANCH  11  12
ATOM     12  C   UNL     1      43.821  31.227  13.261  1.00  0.00    +0.241 C 
ATOM     13  O   UNL     1      44.929  31.759  13.389  1.00  0.00    -0.273 OA
BRANCH  12  14
ATOM     14  N   UNL     1      43.488  30.531  12.117  1.00  0.00    -0.322 N 
ATOM     15  N   UNL     1      40.667  28.709  13.001  1.00  0.00    -0.196 NA
ATOM     16  C   UNL     1      41.320  29.411  12.345  1.00  0.00    +0.087 C 
ATOM     17  C   UNL     1      42.145  30.322  11.524  1.00  0.00    +0.189 C 
ATOM     18  C   UNL     1      42.406  29.704  10.126  1.00  0.00    +0.046 C 
ATOM     19  C   UNL     1      43.836  29.233  10.136  1.00  0.00    +0.017 C 
ATOM     20  C   UNL     1      44.477  29.789  11.375  1.00  0.00    +0.090 C 
ATOM     21  C   UNL     1      44.383  28.301  11.183  1.00  0.00    +0.031 C 
ENDBRANCH  12  14
ENDBRANCH  11  12
BRANCH  11  22
ATOM     22  N   UNL     1      43.372  30.770  15.631  1.00  0.00    -0.319 NA
ATOM     23  H   UNL     1      42.771  30.992  16.427  1.00  0.00    +0.119 HD
ATOM     24  H   UNL     1      43.319  29.749  15.558  1.00  0.00    +0.119 HD
ENDBRANCH  11  22
ENDBRANCH   1  11
BRANCH   8  25
ATOM     25  O   UNL     1      39.057  34.085  16.232  1.00  0.00    -0.390 OA
ATOM     26  H   UNL     1      39.102  33.350  16.867  1.00  0.00    +0.211 HD
ENDBRANCH   8  25
TORSDOF 5
ENDMDL
MODEL 8
REMARK VINA RESULT:    -6.998      2.263      6.545
REMARK INTER + INTRA:          -8.931
REMARK INTER:                  -9.208
REMARK INTRA:                   0.278
REMARK UNBOUND:                -0.296
REMARK SMILES N#C[C@@H]1C[C@@H]2C[C@@H]2N1C(=O)[C@@H](N)C12C[C@H]3C[C@@H](C1)C[C@](O)(C3)C2
REMARK SMILES IDX 13 1 14 2 15 3 16 4 17 5 18 6 19 7 20 8 22 9 23 10 11 11
REMARK SMILES IDX 9 12 10 13 8 14 1 15 2 16 3 17 4 18 5 19 7 20 6 21 12 22
REMARK SMILES IDX 21 25
REMARK H PARENT 12 23 12 24 21 26
ROOT
ATOM      1  C   UNL     1      42.845  35.515  14.799  1.00  0.00    -0.002 C 
ATOM      2  C   UNL     1      41.634  36.173  15.521  1.00  0.00    +0.013 C 
ATOM      3  C   UNL     1      40.299  35.615  14.992  1.00  0.00    -0.007 C 
ATOM      4  C   UNL     1      40.194  35.898  13.486  1.00  0.00    +0.007 C 
ATOM      5  C   UNL     1      41.357  35.220  12.743  1.00  0.00    -0.007 C 
ATOM      6  C   UNL     1      42.691  35.774  13.273  1.00  0.00    +0.013 C 
ATOM      7  C   UNL     1      41.305  33.708  12.989  1.00  0.00    +0.039 C 
ATOM      8  C   UNL     1      41.415  33.419  14.493  1.00  0.00    +0.066 C 
ATOM      9  C   UNL     1      40.251  34.099  15.230  1.00  0.00    +0.039 C 
ATOM     10  C   UNL     1      42.749  33.976  15.021  1.00  0.00    +0.044 C 
ENDROOT
BRANCH   1  11
ATOM     11  C   UNL     1      44.229  36.030  15.312  1.00  0.00    +0.147 C 
BRANCH  11  12
ATOM     12  C   UNL     1      44.456  35.760  16.827  1.00  0.00    +0.241 C 
ATOM     13  O   UNL     1      43.523  35.362  17.532  1.00  0.00    -0.273 OA
BRANCH  12  14
ATOM     14  N   UNL     1      45.713  35.974  17.356  1.00  0.00    -0.322 N 
ATOM     15  N   UNL     1      45.921  33.760  20.023  1.00  0.00    -0.196 NA
ATOM     16  C   UNL     1      46.271  34.299  19.056  1.00  0.00    +0.087 C 
ATOM     17  C   UNL     1      46.705  34.970  17.812  1.00  0.00    +0.189 C 
ATOM     18  C   UNL     1      48.012  35.766  18.053  1.00  0.00    +0.046 C 
ATOM     19  C   UNL     1      47.618  37.218  18.101  1.00  0.00    +0.017 C 
ATOM     20  C   UNL     1      46.192  37.305  17.637  1.00  0.00    +0.090 C 
ATOM     21  C   UNL     1      46.556  37.746  19.028  1.00  0.00    +0.031 C 
ENDBRANCH  12  14
ENDBRANCH  11  12
BRANCH  11  22
ATOM     22  N   UNL     1      45.358  35.428  14.568  1.00  0.00    -0.319 NA
ATOM     23  H   UNL     1      46.189  36.007  14.702  1.00  0.00    +0.119 HD
ATOM     24  H   UNL     1      45.595  34.545  15.032  1.00  0.00    +0.119 HD
ENDBRANCH  11  22
ENDBRANCH   1  11
BRANCH   8  25
ATOM     25  O   UNL     1      41.364  32.015  14.695  1.00  0.00    -0.390 OA
ATOM     26  H   UNL     1      42.205  31.742  15.101  1.00  0.00    +0.211 HD
ENDBRANCH   8  25
TORSDOF 5
ENDMDL
MODEL 9
REMARK VINA RESULT:    -6.765      2.594      6.347
REMARK INTER + INTRA:          -8.642
REMARK INTER:                  -8.145
REMARK INTRA:                  -0.497
REMARK UNBOUND:                -0.296
REMARK SMILES N#C[C@@H]1C[C@@H]2C[C@@H]2N1C(=O)[C@@H](N)C12C[C@H]3C[C@@H](C1)C[C@](O)(C3)C2
REMARK SMILES IDX 13 1 14 2 15 3 16 4 17 5 18 6 19 7 20 8 22 9 23 10 11 11
REMARK SMILES IDX 9 12 10 13 8 14 1 15 2 16 3 17 4 18 5 19 7 20 6 21 12 22
REMARK SMILES IDX 21 25
REMARK H PARENT 12 23 12 24 21 26
ROOT
ATOM      1  C   UNL     1      43.386  33.520  15.750  1.00  0.00    -0.002 C 
ATOM      2  C   UNL     1      43.661  34.507  14.579  1.00  0.00    +0.013 C 
ATOM      3  C   UNL     1      42.397  35.312  14.220  1.00  0.00    -0.007 C 
ATOM      4  C   UNL     1      41.283  34.342  13.801  1.00  0.00    +0.007 C 
ATOM      5  C   UNL     1      40.960  33.382  14.957  1.00  0.00    -0.007 C 
ATOM      6  C   UNL     1      42.223  32.580  15.319  1.00  0.00    +0.013 C 
ATOM      7  C   UNL     1      40.509  34.191  16.179  1.00  0.00    +0.039 C 
ATOM      8  C   UNL     1      41.622  35.158  16.606  1.00  0.00    +0.066 C 
ATOM      9  C   UNL     1      41.940  36.115  15.447  1.00  0.00    +0.039 C 
ATOM     10  C   UNL     1      42.884  34.354  16.965  1.00  0.00    +0.044 C 
ENDROOT
BRANCH   1  11
ATOM     11  C   UNL     1      44.643  32.691  16.170  1.00  0.00    +0.147 C 
BRANCH  11  12
ATOM     12  C   UNL     1      45.389  33.293  17.395  1.00  0.00    +0.241 C 
ATOM     13  O   UNL     1      45.173  32.854  18.529  1.00  0.00    -0.273 OA
BRANCH  12  14
ATOM     14  N   UNL     1      46.288  34.319  17.182  1.00  0.00    -0.322 N 
ATOM     15  N   UNL     1      49.404  32.843  17.596  1.00  0.00    -0.196 NA
ATOM     16  C   UNL     1      48.591  33.489  17.075  1.00  0.00    +0.087 C 
ATOM     17  C   UNL     1      47.549  34.293  16.402  1.00  0.00    +0.189 C 
ATOM     18  C   UNL     1      47.993  35.774  16.293  1.00  0.00    +0.046 C 
ATOM     19  C   UNL     1      47.197  36.529  17.324  1.00  0.00    +0.017 C 
ATOM     20  C   UNL     1      46.135  35.597  17.832  1.00  0.00    +0.090 C 
ATOM     21  C   UNL     1      47.168  36.142  18.778  1.00  0.00    +0.031 C 
ENDBRANCH  12  14
ENDBRANCH  11  12
BRANCH  11  22
ATOM     22  N   UNL     1      44.301  31.286  16.491  1.00  0.00    -0.319 NA
ATOM     23  H   UNL     1      43.293  31.157  16.383  1.00  0.00    +0.119 HD
ATOM     24  H   UNL     1      44.706  30.697  15.756  1.00  0.00    +0.119 HD
ENDBRANCH  11  22
ENDBRANCH   1  11
BRANCH   8  25
ATOM     25  O   UNL     1      41.181  35.894  17.737  1.00  0.00    -0.390 OA
ATOM     26  H   UNL     1      40.798  35.264  18.372  1.00  0.00    +0.211 HD
ENDBRANCH   8  25
TORSDOF 5
ENDMDL
