MODEL 1
REMARK VINA RESULT:    -7.426      0.000      0.000
REMARK INTER + INTRA:          -9.308
REMARK INTER:                  -8.945
REMARK INTRA:                  -0.363
REMARK UNBOUND:                -0.363
REMARK SMILES Oc1ccc(/C=C/c2cc(O)cc(O)c2)cc1
REMARK SMILES IDX 6 1 7 2 5 3 2 4 3 5 17 6 4 7 16 8 1 9 8 11 9 12 15 13 10 14
REMARK SMILES IDX 13 15 12 16 11 17 14 19
REMARK H PARENT 1 10 11 18 14 20
ROOT
ATOM      1  C   UNL     1      40.255  49.594  36.584  1.00  0.00    +0.009 C 
ATOM      2  C   UNL     1      40.818  50.119  35.484  1.00  0.00    +0.009 C 
ENDROOT
BRANCH   1   3
ATOM      3  C   UNL     1      38.872  49.100  36.639  1.00  0.00    -0.025 A 
ATOM      4  C   UNL     1      36.206  48.256  36.706  1.00  0.00    +0.115 A 
ATOM      5  C   UNL     1      36.655  49.032  35.645  1.00  0.00    +0.047 A 
ATOM      6  C   UNL     1      37.064  47.900  37.741  1.00  0.00    +0.047 A 
ATOM      7  C   UNL     1      37.986  49.458  35.615  1.00  0.00    +0.012 A 
ATOM      8  C   UNL     1      38.394  48.327  37.708  1.00  0.00    +0.012 A 
BRANCH   4   9
ATOM      9  O   UNL     1      34.901  47.862  36.697  1.00  0.00    -0.508 OA
ATOM     10  H   UNL     1      34.865  46.905  36.857  1.00  0.00    +0.293 HD
ENDBRANCH   4   9
ENDBRANCH   1   3
BRANCH   2  11
ATOM     11  C   UNL     1      42.201  50.617  35.434  1.00  0.00    -0.018 A 
ATOM     12  C   UNL     1      42.737  51.213  34.284  1.00  0.00    +0.054 A 
ATOM     13  C   UNL     1      43.025  50.444  36.556  1.00  0.00    +0.054 A 
ATOM     14  C   UNL     1      44.062  51.645  34.271  1.00  0.00    +0.119 A 
ATOM     15  C   UNL     1      44.348  50.886  36.522  1.00  0.00    +0.119 A 
ATOM     16  C   UNL     1      44.875  51.490  35.387  1.00  0.00    +0.092 A 
BRANCH  14  17
ATOM     17  O   UNL     1      44.530  52.221  33.127  1.00  0.00    -0.508 OA
ATOM     18  H   UNL     1      43.825  52.776  32.751  1.00  0.00    +0.293 HD
ENDBRANCH  14  17
BRANCH  15  19
ATOM     19  O   UNL     1      45.171  50.741  37.600  1.00  0.00    -0.508 OA
ATOM     20  H   UNL     1      45.680  49.920  37.497  1.00  0.00    +0.293 HD
ENDBRANCH  15  19
ENDBRANCH   2  11
TORSDOF 5
ENDMDL
MODEL 2
REMARK VINA RESULT:    -7.420      0.079      2.323
REMARK INTER + INTRA:          -9.302
REMARK INTER:                  -8.967
REMARK INTRA:                  -0.335
REMARK UNBOUND:                -0.363
REMARK SMILES Oc1ccc(/C=C/c2cc(O)cc(O)c2)cc1
REMARK SMILES IDX 6 1 7 2 5 3 2 4 3 5 17 6 4 7 16 8 1 9 8 11 9 12 15 13 10 14
REMARK SMILES IDX 13 15 12 16 11 17 14 19
REMARK H PARENT 1 10 11 18 14 20
ROOT
ATOM      1  C   UNL     1      40.279  49.522  36.498  1.00  0.00    +0.009 C 
ATOM      2  C   UNL     1      40.835  50.190  35.474  1.00  0.00    +0.009 C 
ENDROOT
BRANCH   1   3
ATOM      3  C   UNL     1      38.869  49.110  36.536  1.00  0.00    -0.025 A 
ATOM      4  C   UNL     1      36.216  48.230  36.647  1.00  0.00    +0.115 A 
ATOM      5  C   UNL     1      37.101  47.874  37.656  1.00  0.00    +0.047 A 
ATOM      6  C   UNL     1      36.635  49.012  35.576  1.00  0.00    +0.047 A 
ATOM      7  C   UNL     1      38.428  48.310  37.598  1.00  0.00    +0.012 A 
ATOM      8  C   UNL     1      37.962  49.446  35.520  1.00  0.00    +0.012 A 
BRANCH   4   9
ATOM      9  O   UNL     1      34.932  47.784  36.742  1.00  0.00    -0.508 OA
ATOM     10  H   UNL     1      34.715  47.288  35.936  1.00  0.00    +0.293 HD
ENDBRANCH   4   9
ENDBRANCH   1   3
BRANCH   2  11
ATOM     11  C   UNL     1      42.246  50.604  35.441  1.00  0.00    -0.018 A 
ATOM     12  C   UNL     1      43.089  50.467  36.552  1.00  0.00    +0.054 A 
ATOM     13  C   UNL     1      42.749  51.203  34.277  1.00  0.00    +0.054 A 
ATOM     14  C   UNL     1      44.412  50.899  36.486  1.00  0.00    +0.119 A 
ATOM     15  C   UNL     1      44.078  51.627  34.231  1.00  0.00    +0.119 A 
ATOM     16  C   UNL     1      44.918  51.477  35.328  1.00  0.00    +0.092 A 
BRANCH  14  17
ATOM     17  O   UNL     1      45.189  50.737  37.595  1.00  0.00    -0.508 OA
ATOM     18  H   UNL     1      46.068  51.108  37.412  1.00  0.00    +0.293 HD
ENDBRANCH  14  17
BRANCH  15  19
ATOM     19  O   UNL     1      44.599  52.204  33.110  1.00  0.00    -0.508 OA
ATOM     20  H   UNL     1      43.873  52.580  32.586  1.00  0.00    +0.293 HD
ENDBRANCH  15  19
ENDBRANCH   2  11
TORSDOF 5
ENDMDL
MODEL 3
REMARK VINA RESULT:    -7.187      5.308      8.702
REMARK INTER + INTRA:          -9.021
REMARK INTER:                  -8.678
REMARK INTRA:                  -0.343
REMARK UNBOUND:                -0.363
REMARK SMILES Oc1ccc(/C=C/c2cc(O)cc(O)c2)cc1
REMARK SMILES IDX 6 1 7 2 5 3 2 4 3 5 17 6 4 7 16 8 1 9 8 11 9 12 15 13 10 14
REMARK SMILES IDX 13 15 12 16 11 17 14 19
REMARK H PARENT 1 10 11 18 14 20
ROOT
ATOM      1  C   UNL     1      37.080  48.224  40.380  1.00  0.00    +0.009 C 
ATOM      2  C   UNL     1      37.779  48.671  41.436  1.00  0.00    +0.009 C 
ENDROOT
BRANCH   1   3
ATOM      3  C   UNL     1      37.283  48.699  39.005  1.00  0.00    -0.025 A 
ATOM      4  C   UNL     1      37.599  49.683  36.405  1.00  0.00    +0.115 A 
ATOM      5  C   UNL     1      37.494  50.571  37.468  1.00  0.00    +0.047 A 
ATOM      6  C   UNL     1      37.541  48.310  36.616  1.00  0.00    +0.047 A 
ATOM      7  C   UNL     1      37.330  50.079  38.766  1.00  0.00    +0.012 A 
ATOM      8  C   UNL     1      37.378  47.821  37.915  1.00  0.00    +0.012 A 
BRANCH   4   9
ATOM      9  O   UNL     1      37.757  50.205  35.156  1.00  0.00    -0.508 OA
ATOM     10  H   UNL     1      37.287  51.053  35.111  1.00  0.00    +0.293 HD
ENDBRANCH   4   9
ENDBRANCH   1   3
BRANCH   2  11
ATOM     11  C   UNL     1      37.570  48.198  42.812  1.00  0.00    -0.018 A 
ATOM     12  C   UNL     1      38.543  48.352  43.809  1.00  0.00    +0.054 A 
ATOM     13  C   UNL     1      36.380  47.524  43.125  1.00  0.00    +0.054 A 
ATOM     14  C   UNL     1      38.314  47.863  45.094  1.00  0.00    +0.119 A 
ATOM     15  C   UNL     1      36.171  47.043  44.417  1.00  0.00    +0.119 A 
ATOM     16  C   UNL     1      37.130  47.209  45.409  1.00  0.00    +0.092 A 
BRANCH  14  17
ATOM     17  O   UNL     1      39.294  48.045  46.026  1.00  0.00    -0.508 OA
ATOM     18  H   UNL     1      40.120  47.664  45.683  1.00  0.00    +0.293 HD
ENDBRANCH  14  17
BRANCH  15  19
ATOM     19  O   UNL     1      35.020  46.392  44.754  1.00  0.00    -0.508 OA
ATOM     20  H   UNL     1      35.197  45.819  45.518  1.00  0.00    +0.293 HD
ENDBRANCH  15  19
ENDBRANCH   2  11
TORSDOF 5
ENDMDL
MODEL 4
REMARK VINA RESULT:    -7.062      5.372      7.789
REMARK INTER + INTRA:          -8.871
REMARK INTER:                  -8.522
REMARK INTRA:                  -0.349
REMARK UNBOUND:                -0.363
REMARK SMILES Oc1ccc(/C=C/c2cc(O)cc(O)c2)cc1
REMARK SMILES IDX 6 1 7 2 5 3 2 4 3 5 17 6 4 7 16 8 1 9 8 11 9 12 15 13 10 14
REMARK SMILES IDX 13 15 12 16 11 17 14 19
REMARK H PARENT 1 10 11 18 14 20
ROOT
ATOM      1  C   UNL     1      36.992  48.398  41.369  1.00  0.00    +0.009 C 
ATOM      2  C   UNL     1      37.757  49.072  40.495  1.00  0.00    +0.009 C 
ENDROOT
BRANCH   1   3
ATOM      3  C   UNL     1      37.351  48.187  42.777  1.00  0.00    -0.025 A 
ATOM      4  C   UNL     1      38.138  47.770  45.429  1.00  0.00    +0.115 A 
ATOM      5  C   UNL     1      38.950  48.510  44.580  1.00  0.00    +0.047 A 
ATOM      6  C   UNL     1      36.941  47.226  44.976  1.00  0.00    +0.047 A 
ATOM      7  C   UNL     1      38.559  48.713  43.253  1.00  0.00    +0.012 A 
ATOM      8  C   UNL     1      36.553  47.431  43.649  1.00  0.00    +0.012 A 
BRANCH   4   9
ATOM      9  O   UNL     1      38.556  47.595  46.715  1.00  0.00    -0.508 OA
ATOM     10  H   UNL     1      39.077  46.777  46.764  1.00  0.00    +0.293 HD
ENDBRANCH   4   9
ENDBRANCH   1   3
BRANCH   2  11
ATOM     11  C   UNL     1      37.397  49.278  39.084  1.00  0.00    -0.018 A 
ATOM     12  C   UNL     1      37.231  50.558  38.537  1.00  0.00    +0.054 A 
ATOM     13  C   UNL     1      37.162  48.158  38.274  1.00  0.00    +0.054 A 
ATOM     14  C   UNL     1      36.861  50.707  37.202  1.00  0.00    +0.119 A 
ATOM     15  C   UNL     1      36.795  48.330  36.939  1.00  0.00    +0.119 A 
ATOM     16  C   UNL     1      36.644  49.598  36.393  1.00  0.00    +0.092 A 
BRANCH  14  17
ATOM     17  O   UNL     1      36.717  51.975  36.721  1.00  0.00    -0.508 OA
ATOM     18  H   UNL     1      37.275  52.070  35.931  1.00  0.00    +0.293 HD
ENDBRANCH  14  17
BRANCH  15  19
ATOM     19  O   UNL     1      36.570  47.260  36.123  1.00  0.00    -0.508 OA
ATOM     20  H   UNL     1      37.369  47.094  35.596  1.00  0.00    +0.293 HD
ENDBRANCH  15  19
ENDBRANCH   2  11
TORSDOF 5
ENDMDL
MODEL 5
REMARK VINA RESULT:    -7.028      5.357      7.879
REMARK INTER + INTRA:          -8.830
REMARK INTER:                  -8.486
REMARK INTRA:                  -0.343
REMARK UNBOUND:                -0.363
REMARK SMILES Oc1ccc(/C=C/c2cc(O)cc(O)c2)cc1
REMARK SMILES IDX 6 1 7 2 5 3 2 4 3 5 17 6 4 7 16 8 1 9 8 11 9 12 15 13 10 14
REMARK SMILES IDX 13 15 12 16 11 17 14 19
REMARK H PARENT 1 10 11 18 14 20
ROOT
ATOM      1  C   UNL     1      36.984  48.334  41.470  1.00  0.00    +0.009 C 
ATOM      2  C   UNL     1      37.694  49.092  40.617  1.00  0.00    +0.009 C 
ENDROOT
BRANCH   1   3
ATOM      3  C   UNL     1      37.339  48.140  42.882  1.00  0.00    -0.025 A 
ATOM      4  C   UNL     1      38.118  47.754  45.541  1.00  0.00    +0.115 A 
ATOM      5  C   UNL     1      38.943  48.464  44.679  1.00  0.00    +0.047 A 
ATOM      6  C   UNL     1      36.911  47.224  45.096  1.00  0.00    +0.047 A 
ATOM      7  C   UNL     1      38.557  48.651  43.349  1.00  0.00    +0.012 A 
ATOM      8  C   UNL     1      36.527  47.414  43.766  1.00  0.00    +0.012 A 
BRANCH   4   9
ATOM      9  O   UNL     1      38.533  47.593  46.830  1.00  0.00    -0.508 OA
ATOM     10  H   UNL     1      37.812  47.859  47.423  1.00  0.00    +0.293 HD
ENDBRANCH   4   9
ENDBRANCH   1   3
BRANCH   2  11
ATOM     11  C   UNL     1      37.338  49.280  39.203  1.00  0.00    -0.018 A 
ATOM     12  C   UNL     1      37.149  48.198  38.332  1.00  0.00    +0.054 A 
ATOM     13  C   UNL     1      37.236  50.584  38.697  1.00  0.00    +0.054 A 
ATOM     14  C   UNL     1      36.841  48.423  36.992  1.00  0.00    +0.119 A 
ATOM     15  C   UNL     1      36.924  50.787  37.353  1.00  0.00    +0.119 A 
ATOM     16  C   UNL     1      36.723  49.714  36.493  1.00  0.00    +0.092 A 
BRANCH  14  17
ATOM     17  O   UNL     1      36.663  47.333  36.191  1.00  0.00    -0.508 OA
ATOM     18  H   UNL     1      35.795  47.407  35.758  1.00  0.00    +0.293 HD
ENDBRANCH  14  17
BRANCH  15  19
ATOM     19  O   UNL     1      36.808  52.043  36.834  1.00  0.00    -0.508 OA
ATOM     20  H   UNL     1      36.566  51.973  35.896  1.00  0.00    +0.293 HD
ENDBRANCH  15  19
ENDBRANCH   2  11
TORSDOF 5
ENDMDL
