MODEL 1
REMARK VINA RESULT:    -8.438      0.000      0.000
REMARK INTER + INTRA:         -10.570
REMARK INTER:                  -9.918
REMARK INTRA:                  -0.652
REMARK UNBOUND:                -0.652
REMARK SMILES Cn1c(=O)c2c(nc(N3CCOCC3)n2Cc2ccccc2)n(C)c1=O
REMARK SMILES IDX 1 1 2 2 3 3 4 4 5 5 6 6 7 7 8 8 15 9 23 10 24 11 25 12 26 13
REMARK SMILES IDX 16 14 17 15 18 16 22 17 19 18 21 19 20 20 9 21 10 22 14 23
REMARK SMILES IDX 11 24 13 25 12 26
REMARK H PARENT
ROOT
ATOM      1  C   UNL     1      41.568  30.134  11.294  1.00  0.00    +0.159 C 
ATOM      2  N   UNL     1      42.033  30.923  12.418  1.00  0.00    -0.261 N 
ATOM      3  C   UNL     1      41.926  32.315  12.322  1.00  0.00    +0.282 C 
ATOM      4  O   UNL     1      41.504  32.900  11.328  1.00  0.00    -0.267 OA
ATOM      5  C   UNL     1      42.398  32.989  13.482  1.00  0.00    +0.154 A 
ATOM      6  C   UNL     1      42.973  32.338  14.530  1.00  0.00    +0.170 A 
ATOM      7  N   UNL     1      43.378  33.193  15.505  1.00  0.00    -0.194 NA
ATOM      8  C   UNL     1      43.057  34.390  15.060  1.00  0.00    +0.208 A 
ATOM      9  N   UNL     1      42.401  34.312  13.844  1.00  0.00    -0.300 N 
ATOM     10  N   UNL     1      43.122  30.971  14.547  1.00  0.00    -0.279 N 
ATOM     11  C   UNL     1      43.769  30.324  15.674  1.00  0.00    +0.157 C 
ATOM     12  C   UNL     1      42.661  30.221  13.465  1.00  0.00    +0.332 C 
ATOM     13  O   UNL     1      42.803  28.996  13.416  1.00  0.00    -0.247 OA
ENDROOT
BRANCH   9  14
ATOM     14  C   UNL     1      41.797  35.414  13.112  1.00  0.00    +0.161 C 
BRANCH  14  15
ATOM     15  C   UNL     1      40.333  35.575  13.443  1.00  0.00    -0.028 A 
ATOM     16  C   UNL     1      39.558  36.557  12.808  1.00  0.00    +0.005 A 
ATOM     17  C   UNL     1      39.719  34.744  14.392  1.00  0.00    +0.005 A 
ATOM     18  C   UNL     1      38.203  36.701  13.113  1.00  0.00    +0.000 A 
ATOM     19  C   UNL     1      38.365  34.889  14.696  1.00  0.00    +0.000 A 
ATOM     20  C   UNL     1      37.607  35.866  14.056  1.00  0.00    +0.000 A 
ENDBRANCH  14  15
ENDBRANCH   9  14
BRANCH   8  21
ATOM     21  N   UNL     1      43.294  35.582  15.677  1.00  0.00    -0.338 N 
ATOM     22  C   UNL     1      42.991  35.582  17.136  1.00  0.00    +0.148 C 
ATOM     23  C   UNL     1      44.647  36.137  15.389  1.00  0.00    +0.148 C 
ATOM     24  C   UNL     1      44.272  35.475  17.973  1.00  0.00    +0.181 C 
ATOM     25  C   UNL     1      45.062  37.156  16.460  1.00  0.00    +0.181 C 
ATOM     26  O   UNL     1      45.165  36.586  17.773  1.00  0.00    -0.378 OA
ENDBRANCH   8  21
TORSDOF 3
ENDMDL
MODEL 2
REMARK VINA RESULT:    -8.202      1.617      5.524
REMARK INTER + INTRA:         -10.292
REMARK INTER:                  -9.565
REMARK INTRA:                  -0.728
REMARK UNBOUND:                -0.652
REMARK SMILES Cn1c(=O)c2c(nc(N3CCOCC3)n2Cc2ccccc2)n(C)c1=O
REMARK SMILES IDX 1 1 2 2 3 3 4 4 5 5 6 6 7 7 8 8 15 9 23 10 24 11 25 12 26 13
REMARK SMILES IDX 16 14 17 15 18 16 22 17 19 18 21 19 20 20 9 21 10 22 14 23
REMARK SMILES IDX 11 24 13 25 12 26
REMARK H PARENT
ROOT
ATOM      1  C   UNL     1      45.388  37.019  17.792  1.00  0.00    +0.159 C 
ATOM      2  N   UNL     1      45.086  36.009  16.798  1.00  0.00    -0.261 N 
ATOM      3  C   UNL     1      43.796  35.466  16.797  1.00  0.00    +0.282 C 
ATOM      4  O   UNL     1      42.929  35.766  17.612  1.00  0.00    -0.267 OA
ATOM      5  C   UNL     1      43.604  34.496  15.775  1.00  0.00    +0.154 A 
ATOM      6  C   UNL     1      44.606  34.085  14.950  1.00  0.00    +0.170 A 
ATOM      7  N   UNL     1      44.194  33.126  14.081  1.00  0.00    -0.194 NA
ATOM      8  C   UNL     1      42.923  32.933  14.366  1.00  0.00    +0.208 A 
ATOM      9  N   UNL     1      42.500  33.793  15.364  1.00  0.00    -0.300 N 
ATOM     10  N   UNL     1      45.880  34.596  15.038  1.00  0.00    -0.279 N 
ATOM     11  C   UNL     1      46.923  34.105  14.157  1.00  0.00    +0.157 C 
ATOM     12  C   UNL     1      46.157  35.576  15.992  1.00  0.00    +0.332 C 
ATOM     13  O   UNL     1      47.291  36.042  16.135  1.00  0.00    -0.247 OA
ENDROOT
BRANCH   9  14
ATOM     14  C   UNL     1      41.140  33.948  15.855  1.00  0.00    +0.161 C 
BRANCH  14  15
ATOM     15  C   UNL     1      40.294  34.777  14.918  1.00  0.00    -0.028 A 
ATOM     16  C   UNL     1      38.903  34.606  14.868  1.00  0.00    +0.005 A 
ATOM     17  C   UNL     1      40.886  35.734  14.080  1.00  0.00    +0.005 A 
ATOM     18  C   UNL     1      38.123  35.377  14.003  1.00  0.00    +0.000 A 
ATOM     19  C   UNL     1      40.104  36.504  13.215  1.00  0.00    +0.000 A 
ATOM     20  C   UNL     1      38.724  36.326  13.179  1.00  0.00    +0.000 A 
ENDBRANCH  14  15
ENDBRANCH   9  14
BRANCH   8  21
ATOM     21  N   UNL     1      42.081  32.037  13.780  1.00  0.00    -0.338 N 
ATOM     22  C   UNL     1      42.047  32.118  12.292  1.00  0.00    +0.148 C 
ATOM     23  C   UNL     1      42.280  30.640  14.257  1.00  0.00    +0.148 C 
ATOM     24  C   UNL     1      42.869  30.991  11.652  1.00  0.00    +0.181 C 
ATOM     25  C   UNL     1      41.714  29.629  13.250  1.00  0.00    +0.181 C 
ATOM     26  O   UNL     1      42.364  29.681  11.971  1.00  0.00    -0.378 OA
ENDBRANCH   8  21
TORSDOF 3
ENDMDL
MODEL 3
REMARK VINA RESULT:    -7.584      1.576      1.950
REMARK INTER + INTRA:          -9.566
REMARK INTER:                  -8.891
REMARK INTRA:                  -0.675
REMARK UNBOUND:                -0.652
REMARK SMILES Cn1c(=O)c2c(nc(N3CCOCC3)n2Cc2ccccc2)n(C)c1=O
REMARK SMILES IDX 1 1 2 2 3 3 4 4 5 5 6 6 7 7 8 8 15 9 23 10 24 11 25 12 26 13
REMARK SMILES IDX 16 14 17 15 18 16 22 17 19 18 21 19 20 20 9 21 10 22 14 23
REMARK SMILES IDX 11 24 13 25 12 26
REMARK H PARENT
ROOT
ATOM      1  C   UNL     1      42.118  29.596  13.067  1.00  0.00    +0.159 C 
ATOM      2  N   UNL     1      42.855  30.716  13.619  1.00  0.00    -0.261 N 
ATOM      3  C   UNL     1      42.137  31.666  14.355  1.00  0.00    +0.282 C 
ATOM      4  O   UNL     1      40.921  31.624  14.519  1.00  0.00    -0.267 OA
ATOM      5  C   UNL     1      42.957  32.712  14.860  1.00  0.00    +0.154 A 
ATOM      6  C   UNL     1      44.284  32.812  14.573  1.00  0.00    +0.170 A 
ATOM      7  N   UNL     1      44.848  33.912  15.136  1.00  0.00    -0.194 NA
ATOM      8  C   UNL     1      43.864  34.507  15.778  1.00  0.00    +0.208 A 
ATOM      9  N   UNL     1      42.692  33.776  15.684  1.00  0.00    -0.300 N 
ATOM     10  N   UNL     1      44.931  31.892  13.783  1.00  0.00    -0.279 N 
ATOM     11  C   UNL     1      46.341  32.058  13.480  1.00  0.00    +0.157 C 
ATOM     12  C   UNL     1      44.215  30.812  13.266  1.00  0.00    +0.332 C 
ATOM     13  O   UNL     1      44.741  29.978  12.524  1.00  0.00    -0.247 OA
ENDROOT
BRANCH   9  14
ATOM     14  C   UNL     1      41.437  34.061  16.359  1.00  0.00    +0.161 C 
BRANCH  14  15
ATOM     15  C   UNL     1      40.456  34.765  15.452  1.00  0.00    -0.028 A 
ATOM     16  C   UNL     1      40.841  35.901  14.724  1.00  0.00    +0.005 A 
ATOM     17  C   UNL     1      39.140  34.296  15.321  1.00  0.00    +0.005 A 
ATOM     18  C   UNL     1      39.933  36.547  13.883  1.00  0.00    +0.000 A 
ATOM     19  C   UNL     1      38.234  34.944  14.480  1.00  0.00    +0.000 A 
ATOM     20  C   UNL     1      38.632  36.068  13.760  1.00  0.00    +0.000 A 
ENDBRANCH  14  15
ENDBRANCH   9  14
BRANCH   8  21
ATOM     21  N   UNL     1      43.931  35.676  16.475  1.00  0.00    -0.338 N 
ATOM     22  C   UNL     1      44.212  35.501  17.928  1.00  0.00    +0.148 C 
ATOM     23  C   UNL     1      44.833  36.685  15.851  1.00  0.00    +0.148 C 
ATOM     24  C   UNL     1      45.677  35.813  18.256  1.00  0.00    +0.181 C 
ATOM     25  C   UNL     1      45.279  37.734  16.880  1.00  0.00    +0.181 C 
ATOM     26  O   UNL     1      46.037  37.176  17.964  1.00  0.00    -0.378 OA
ENDBRANCH   8  21
TORSDOF 3
ENDMDL
MODEL 4
REMARK VINA RESULT:    -7.407      2.054      5.520
REMARK INTER + INTRA:          -9.358
REMARK INTER:                  -8.693
REMARK INTRA:                  -0.665
REMARK UNBOUND:                -0.652
REMARK SMILES Cn1c(=O)c2c(nc(N3CCOCC3)n2Cc2ccccc2)n(C)c1=O
REMARK SMILES IDX 1 1 2 2 3 3 4 4 5 5 6 6 7 7 8 8 15 9 23 10 24 11 25 12 26 13
REMARK SMILES IDX 16 14 17 15 18 16 22 17 19 18 21 19 20 20 9 21 10 22 14 23
REMARK SMILES IDX 11 24 13 25 12 26
REMARK H PARENT
ROOT
ATOM      1  C   UNL     1      45.956  34.916  17.539  1.00  0.00    +0.159 C 
ATOM      2  N   UNL     1      45.503  34.147  16.396  1.00  0.00    -0.261 N 
ATOM      3  C   UNL     1      44.141  33.839  16.320  1.00  0.00    +0.282 C 
ATOM      4  O   UNL     1      43.324  34.145  17.183  1.00  0.00    -0.267 OA
ATOM      5  C   UNL     1      43.805  33.096  15.155  1.00  0.00    +0.154 A 
ATOM      6  C   UNL     1      44.737  32.661  14.264  1.00  0.00    +0.170 A 
ATOM      7  N   UNL     1      44.183  31.942  13.253  1.00  0.00    -0.194 NA
ATOM      8  C   UNL     1      42.893  31.923  13.517  1.00  0.00    +0.208 A 
ATOM      9  N   UNL     1      42.604  32.668  14.648  1.00  0.00    -0.300 N 
ATOM     10  N   UNL     1      46.076  32.927  14.420  1.00  0.00    -0.279 N 
ATOM     11  C   UNL     1      47.037  32.417  13.458  1.00  0.00    +0.157 C 
ATOM     12  C   UNL     1      46.500  33.677  15.518  1.00  0.00    +0.332 C 
ATOM     13  O   UNL     1      47.694  33.914  15.723  1.00  0.00    -0.247 OA
ENDROOT
BRANCH   9  14
ATOM     14  C   UNL     1      41.282  32.969  15.172  1.00  0.00    +0.161 C 
BRANCH  14  15
ATOM     15  C   UNL     1      40.663  34.164  14.487  1.00  0.00    -0.028 A 
ATOM     16  C   UNL     1      41.390  34.904  13.542  1.00  0.00    +0.005 A 
ATOM     17  C   UNL     1      39.349  34.556  14.783  1.00  0.00    +0.005 A 
ATOM     18  C   UNL     1      40.813  36.005  12.906  1.00  0.00    +0.000 A 
ATOM     19  C   UNL     1      38.775  35.658  14.147  1.00  0.00    +0.000 A 
ATOM     20  C   UNL     1      39.507  36.381  13.208  1.00  0.00    +0.000 A 
ENDBRANCH  14  15
ENDBRANCH   9  14
BRANCH   8  21
ATOM     21  N   UNL     1      41.921  31.291  12.801  1.00  0.00    -0.338 N 
ATOM     22  C   UNL     1      41.960  31.577  11.339  1.00  0.00    +0.148 C 
ATOM     23  C   UNL     1      41.837  29.830  13.081  1.00  0.00    +0.148 C 
ATOM     24  C   UNL     1      42.580  30.411  10.558  1.00  0.00    +0.181 C 
ATOM     25  C   UNL     1      41.131  29.091  11.936  1.00  0.00    +0.181 C 
ATOM     26  O   UNL     1      41.828  29.191  10.685  1.00  0.00    -0.378 OA
ENDBRANCH   8  21
TORSDOF 3
ENDMDL
MODEL 5
REMARK VINA RESULT:    -7.335      1.761      5.333
REMARK INTER + INTRA:          -9.273
REMARK INTER:                  -8.482
REMARK INTRA:                  -0.792
REMARK UNBOUND:                -0.652
REMARK SMILES Cn1c(=O)c2c(nc(N3CCOCC3)n2Cc2ccccc2)n(C)c1=O
REMARK SMILES IDX 1 1 2 2 3 3 4 4 5 5 6 6 7 7 8 8 15 9 23 10 24 11 25 12 26 13
REMARK SMILES IDX 16 14 17 15 18 16 22 17 19 18 21 19 20 20 9 21 10 22 14 23
REMARK SMILES IDX 11 24 13 25 12 26
REMARK H PARENT
ROOT
ATOM      1  C   UNL     1      45.433  37.184  16.771  1.00  0.00    +0.159 C 
ATOM      2  N   UNL     1      45.027  35.796  16.662  1.00  0.00    -0.261 N 
ATOM      3  C   UNL     1      44.150  35.457  15.625  1.00  0.00    +0.282 C 
ATOM      4  O   UNL     1      43.678  36.272  14.838  1.00  0.00    -0.267 OA
ATOM      5  C   UNL     1      43.828  34.072  15.602  1.00  0.00    +0.154 A 
ATOM      6  C   UNL     1      44.264  33.198  16.551  1.00  0.00    +0.170 A 
ATOM      7  N   UNL     1      43.799  31.940  16.340  1.00  0.00    -0.194 NA
ATOM      8  C   UNL     1      43.061  32.028  15.252  1.00  0.00    +0.208 A 
ATOM      9  N   UNL     1      43.094  33.309  14.730  1.00  0.00    -0.300 N 
ATOM     10  N   UNL     1      45.067  33.594  17.594  1.00  0.00    -0.279 N 
ATOM     11  C   UNL     1      45.482  32.631  18.598  1.00  0.00    +0.157 C 
ATOM     12  C   UNL     1      45.460  34.929  17.684  1.00  0.00    +0.332 C 
ATOM     13  O   UNL     1      46.151  35.343  18.620  1.00  0.00    -0.247 OA
ENDROOT
BRANCH   9  14
ATOM     14  C   UNL     1      42.499  33.751  13.479  1.00  0.00    +0.161 C 
BRANCH  14  15
ATOM     15  C   UNL     1      41.194  34.477  13.701  1.00  0.00    -0.028 A 
ATOM     16  C   UNL     1      40.856  35.597  12.928  1.00  0.00    +0.005 A 
ATOM     17  C   UNL     1      40.294  34.043  14.687  1.00  0.00    +0.005 A 
ATOM     18  C   UNL     1      39.647  36.264  13.133  1.00  0.00    +0.000 A 
ATOM     19  C   UNL     1      39.086  34.712  14.891  1.00  0.00    +0.000 A 
ATOM     20  C   UNL     1      38.762  35.821  14.113  1.00  0.00    +0.000 A 
ENDBRANCH  14  15
ENDBRANCH   9  14
BRANCH   8  21
ATOM     21  N   UNL     1      42.353  31.025  14.661  1.00  0.00    -0.338 N 
ATOM     22  C   UNL     1      43.197  30.025  13.948  1.00  0.00    +0.148 C 
ATOM     23  C   UNL     1      41.372  30.376  15.575  1.00  0.00    +0.148 C 
ATOM     24  C   UNL     1      43.354  28.739  14.769  1.00  0.00    +0.181 C 
ATOM     25  C   UNL     1      40.988  28.979  15.067  1.00  0.00    +0.181 C 
ATOM     26  O   UNL     1      42.100  28.073  15.010  1.00  0.00    -0.378 OA
ENDBRANCH   8  21
TORSDOF 3
ENDMDL
MODEL 6
REMARK VINA RESULT:    -7.294      2.702      6.958
REMARK INTER + INTRA:          -9.225
REMARK INTER:                  -8.513
REMARK INTRA:                  -0.712
REMARK UNBOUND:                -0.652
REMARK SMILES Cn1c(=O)c2c(nc(N3CCOCC3)n2Cc2ccccc2)n(C)c1=O
REMARK SMILES IDX 1 1 2 2 3 3 4 4 5 5 6 6 7 7 8 8 15 9 23 10 24 11 25 12 26 13
REMARK SMILES IDX 16 14 17 15 18 16 22 17 19 18 21 19 20 20 9 21 10 22 14 23
REMARK SMILES IDX 11 24 13 25 12 26
REMARK H PARENT
ROOT
ATOM      1  C   UNL     1      43.682  35.779  14.672  1.00  0.00    +0.159 C 
ATOM      2  N   UNL     1      42.965  34.548  14.941  1.00  0.00    -0.261 N 
ATOM      3  C   UNL     1      43.542  33.352  14.504  1.00  0.00    +0.282 C 
ATOM      4  O   UNL     1      44.593  33.293  13.872  1.00  0.00    -0.267 OA
ATOM      5  C   UNL     1      42.764  32.208  14.831  1.00  0.00    +0.154 A 
ATOM      6  C   UNL     1      41.543  32.293  15.428  1.00  0.00    +0.170 A 
ATOM      7  N   UNL     1      40.974  31.073  15.608  1.00  0.00    -0.194 NA
ATOM      8  C   UNL     1      41.845  30.216  15.114  1.00  0.00    +0.208 A 
ATOM      9  N   UNL     1      42.987  30.863  14.675  1.00  0.00    -0.300 N 
ATOM     10  N   UNL     1      40.983  33.500  15.775  1.00  0.00    -0.279 N 
ATOM     11  C   UNL     1      39.666  33.542  16.383  1.00  0.00    +0.157 C 
ATOM     12  C   UNL     1      41.687  34.677  15.521  1.00  0.00    +0.332 C 
ATOM     13  O   UNL     1      41.214  35.787  15.780  1.00  0.00    -0.247 OA
ENDROOT
BRANCH   9  14
ATOM     14  C   UNL     1      44.203  30.236  14.182  1.00  0.00    +0.161 C 
BRANCH  14  15
ATOM     15  C   UNL     1      44.113  29.916  12.708  1.00  0.00    -0.028 A 
ATOM     16  C   UNL     1      45.127  29.185  12.071  1.00  0.00    +0.005 A 
ATOM     17  C   UNL     1      43.014  30.346  11.950  1.00  0.00    +0.005 A 
ATOM     18  C   UNL     1      45.039  28.888  10.710  1.00  0.00    +0.000 A 
ATOM     19  C   UNL     1      42.929  30.048  10.588  1.00  0.00    +0.000 A 
ATOM     20  C   UNL     1      43.941  29.318   9.970  1.00  0.00    +0.000 A 
ENDBRANCH  14  15
ENDBRANCH   9  14
BRANCH   8  21
ATOM     21  N   UNL     1      41.706  28.863  15.036  1.00  0.00    -0.338 N 
ATOM     22  C   UNL     1      41.528  28.193  16.355  1.00  0.00    +0.148 C 
ATOM     23  C   UNL     1      40.678  28.430  14.049  1.00  0.00    +0.148 C 
ATOM     24  C   UNL     1      40.061  27.818  16.598  1.00  0.00    +0.181 C 
ATOM     25  C   UNL     1      40.194  27.005  14.348  1.00  0.00    +0.181 C 
ATOM     26  O   UNL     1      39.556  26.881  15.628  1.00  0.00    -0.378 OA
ENDBRANCH   8  21
TORSDOF 3
ENDMDL
MODEL 7
REMARK VINA RESULT:    -7.124      1.845      5.237
REMARK INTER + INTRA:          -9.025
REMARK INTER:                  -8.191
REMARK INTRA:                  -0.834
REMARK UNBOUND:                -0.652
REMARK SMILES Cn1c(=O)c2c(nc(N3CCOCC3)n2Cc2ccccc2)n(C)c1=O
REMARK SMILES IDX 1 1 2 2 3 3 4 4 5 5 6 6 7 7 8 8 15 9 23 10 24 11 25 12 26 13
REMARK SMILES IDX 16 14 17 15 18 16 22 17 19 18 21 19 20 20 9 21 10 22 14 23
REMARK SMILES IDX 11 24 13 25 12 26
REMARK H PARENT
ROOT
ATOM      1  C   UNL     1      45.808  30.199  15.590  1.00  0.00    +0.159 C 
ATOM      2  N   UNL     1      44.743  31.018  15.045  1.00  0.00    -0.261 N 
ATOM      3  C   UNL     1      44.120  31.929  15.905  1.00  0.00    +0.282 C 
ATOM      4  O   UNL     1      44.397  32.041  17.096  1.00  0.00    -0.267 OA
ATOM      5  C   UNL     1      43.102  32.688  15.265  1.00  0.00    +0.154 A 
ATOM      6  C   UNL     1      42.723  32.475  13.975  1.00  0.00    +0.170 A 
ATOM      7  N   UNL     1      41.708  33.294  13.597  1.00  0.00    -0.194 NA
ATOM      8  C   UNL     1      41.447  34.025  14.661  1.00  0.00    +0.208 A 
ATOM      9  N   UNL     1      42.316  33.727  15.696  1.00  0.00    -0.300 N 
ATOM     10  N   UNL     1      43.316  31.514  13.190  1.00  0.00    -0.279 N 
ATOM     11  C   UNL     1      42.858  31.303  11.829  1.00  0.00    +0.157 C 
ATOM     12  C   UNL     1      44.347  30.740  13.722  1.00  0.00    +0.332 C 
ATOM     13  O   UNL     1      44.889  29.841  13.070  1.00  0.00    -0.247 OA
ENDROOT
BRANCH   9  14
ATOM     14  C   UNL     1      42.405  34.410  16.977  1.00  0.00    +0.161 C 
BRANCH  14  15
ATOM     15  C   UNL     1      43.619  35.305  17.055  1.00  0.00    -0.028 A 
ATOM     16  C   UNL     1      44.548  35.162  18.096  1.00  0.00    +0.005 A 
ATOM     17  C   UNL     1      43.839  36.296  16.087  1.00  0.00    +0.005 A 
ATOM     18  C   UNL     1      45.672  35.988  18.163  1.00  0.00    +0.000 A 
ATOM     19  C   UNL     1      44.963  37.122  16.157  1.00  0.00    +0.000 A 
ATOM     20  C   UNL     1      45.879  36.966  17.194  1.00  0.00    +0.000 A 
ENDBRANCH  14  15
ENDBRANCH   9  14
BRANCH   8  21
ATOM     21  N   UNL     1      40.478  34.975  14.782  1.00  0.00    -0.338 N 
ATOM     22  C   UNL     1      40.751  36.222  14.014  1.00  0.00    +0.148 C 
ATOM     23  C   UNL     1      39.105  34.454  14.530  1.00  0.00    +0.148 C 
ATOM     24  C   UNL     1      39.925  36.275  12.722  1.00  0.00    +0.181 C 
ATOM     25  C   UNL     1      38.142  35.595  14.171  1.00  0.00    +0.181 C 
ATOM     26  O   UNL     1      38.507  36.284  12.966  1.00  0.00    -0.378 OA
ENDBRANCH   8  21
TORSDOF 3
ENDMDL
MODEL 8
REMARK VINA RESULT:    -6.902      2.836      5.864
REMARK INTER + INTRA:          -8.764
REMARK INTER:                  -7.948
REMARK INTRA:                  -0.817
REMARK UNBOUND:                -0.652
REMARK SMILES Cn1c(=O)c2c(nc(N3CCOCC3)n2Cc2ccccc2)n(C)c1=O
REMARK SMILES IDX 1 1 2 2 3 3 4 4 5 5 6 6 7 7 8 8 15 9 23 10 24 11 25 12 26 13
REMARK SMILES IDX 16 14 17 15 18 16 22 17 19 18 21 19 20 20 9 21 10 22 14 23
REMARK SMILES IDX 11 24 13 25 12 26
REMARK H PARENT
ROOT
ATOM      1  C   UNL     1      39.571  33.937  15.765  1.00  0.00    +0.159 C 
ATOM      2  N   UNL     1      40.979  33.849  15.431  1.00  0.00    -0.261 N 
ATOM      3  C   UNL     1      41.495  32.586  15.122  1.00  0.00    +0.282 C 
ATOM      4  O   UNL     1      40.835  31.552  15.161  1.00  0.00    -0.267 OA
ATOM      5  C   UNL     1      42.879  32.617  14.797  1.00  0.00    +0.154 A 
ATOM      6  C   UNL     1      43.629  33.751  14.871  1.00  0.00    +0.170 A 
ATOM      7  N   UNL     1      44.929  33.527  14.550  1.00  0.00    -0.194 NA
ATOM      8  C   UNL     1      44.995  32.241  14.276  1.00  0.00    +0.208 A 
ATOM      9  N   UNL     1      43.747  31.649  14.360  1.00  0.00    -0.300 N 
ATOM     10  N   UNL     1      43.091  34.958  15.252  1.00  0.00    -0.279 N 
ATOM     11  C   UNL     1      43.936  36.134  15.345  1.00  0.00    +0.157 C 
ATOM     12  C   UNL     1      41.733  35.033  15.561  1.00  0.00    +0.332 C 
ATOM     13  O   UNL     1      41.208  36.084  15.941  1.00  0.00    -0.247 OA
ENDROOT
BRANCH   9  14
ATOM     14  C   UNL     1      43.414  30.276  14.014  1.00  0.00    +0.161 C 
BRANCH  14  15
ATOM     15  C   UNL     1      43.198  30.107  12.529  1.00  0.00    -0.028 A 
ATOM     16  C   UNL     1      43.994  29.224  11.785  1.00  0.00    +0.005 A 
ATOM     17  C   UNL     1      42.195  30.830  11.866  1.00  0.00    +0.005 A 
ATOM     18  C   UNL     1      43.789  29.066  10.413  1.00  0.00    +0.000 A 
ATOM     19  C   UNL     1      41.992  30.672  10.493  1.00  0.00    +0.000 A 
ATOM     20  C   UNL     1      42.788  29.789   9.768  1.00  0.00    +0.000 A 
ENDBRANCH  14  15
ENDBRANCH   9  14
BRANCH   8  21
ATOM     21  N   UNL     1      46.108  31.534  13.931  1.00  0.00    -0.338 N 
ATOM     22  C   UNL     1      47.076  32.296  13.094  1.00  0.00    +0.148 C 
ATOM     23  C   UNL     1      46.772  30.875  15.091  1.00  0.00    +0.148 C 
ATOM     24  C   UNL     1      48.268  32.788  13.925  1.00  0.00    +0.181 C 
ATOM     25  C   UNL     1      48.237  30.546  14.771  1.00  0.00    +0.181 C 
ATOM     26  O   UNL     1      49.031  31.710  14.499  1.00  0.00    -0.378 OA
ENDBRANCH   8  21
TORSDOF 3
ENDMDL
MODEL 9
REMARK VINA RESULT:    -6.782      2.801      5.782
REMARK INTER + INTRA:          -8.623
REMARK INTER:                  -7.645
REMARK INTRA:                  -0.978
REMARK UNBOUND:                -0.652
REMARK SMILES Cn1c(=O)c2c(nc(N3CCOCC3)n2Cc2ccccc2)n(C)c1=O
REMARK SMILES IDX 1 1 2 2 3 3 4 4 5 5 6 6 7 7 8 8 15 9 23 10 24 11 25 12 26 13
REMARK SMILES IDX 16 14 17 15 18 16 22 17 19 18 21 19 20 20 9 21 10 22 14 23
REMARK SMILES IDX 11 24 13 25 12 26
REMARK H PARENT
ROOT
ATOM      1  C   UNL     1      40.475  35.994  13.853  1.00  0.00    +0.159 C 
ATOM      2  N   UNL     1      41.372  35.001  14.411  1.00  0.00    -0.261 N 
ATOM      3  C   UNL     1      42.747  35.211  14.259  1.00  0.00    +0.282 C 
ATOM      4  O   UNL     1      43.228  36.160  13.647  1.00  0.00    -0.267 OA
ATOM      5  C   UNL     1      43.534  34.186  14.853  1.00  0.00    +0.154 A 
ATOM      6  C   UNL     1      42.989  33.078  15.427  1.00  0.00    +0.170 A 
ATOM      7  N   UNL     1      43.937  32.224  15.892  1.00  0.00    -0.194 NA
ATOM      8  C   UNL     1      45.085  32.801  15.604  1.00  0.00    +0.208 A 
ATOM      9  N   UNL     1      44.888  34.037  15.013  1.00  0.00    -0.300 N 
ATOM     10  N   UNL     1      41.630  32.880  15.488  1.00  0.00    -0.279 N 
ATOM     11  C   UNL     1      41.097  31.668  16.083  1.00  0.00    +0.157 C 
ATOM     12  C   UNL     1      40.776  33.847  14.958  1.00  0.00    +0.332 C 
ATOM     13  O   UNL     1      39.550  33.702  14.956  1.00  0.00    -0.247 OA
ENDROOT
BRANCH   9  14
ATOM     14  C   UNL     1      45.915  35.006  14.667  1.00  0.00    +0.161 C 
BRANCH  14  15
ATOM     15  C   UNL     1      46.338  35.829  15.860  1.00  0.00    -0.028 A 
ATOM     16  C   UNL     1      47.643  35.739  16.367  1.00  0.00    +0.005 A 
ATOM     17  C   UNL     1      45.432  36.700  16.485  1.00  0.00    +0.005 A 
ATOM     18  C   UNL     1      48.032  36.505  17.468  1.00  0.00    +0.000 A 
ATOM     19  C   UNL     1      45.823  37.464  17.586  1.00  0.00    +0.000 A 
ATOM     20  C   UNL     1      47.123  37.367  18.076  1.00  0.00    +0.000 A 
ENDBRANCH  14  15
ENDBRANCH   9  14
BRANCH   8  21
ATOM     21  N   UNL     1      46.332  32.307  15.845  1.00  0.00    -0.338 N 
ATOM     22  C   UNL     1      46.711  32.294  17.286  1.00  0.00    +0.148 C 
ATOM     23  C   UNL     1      46.584  30.993  15.191  1.00  0.00    +0.148 C 
ATOM     24  C   UNL     1      46.594  30.885  17.883  1.00  0.00    +0.181 C 
ATOM     25  C   UNL     1      47.740  30.250  15.877  1.00  0.00    +0.181 C 
ATOM     26  O   UNL     1      47.474  29.937  17.252  1.00  0.00    -0.378 OA
ENDBRANCH   8  21
TORSDOF 3
ENDMDL
