MODEL 1
REMARK VINA RESULT:    -6.729      0.000      0.000
REMARK INTER + INTRA:          -8.728
REMARK INTER:                  -8.303
REMARK INTRA:                  -0.425
REMARK UNBOUND:                -0.425
REMARK SMILES Nc1ncnc2c1ncn2[C@@H]1O[C@H](CO)[C@@H](O)[C@@H]1O
REMARK SMILES IDX 11 1 12 2 13 3 16 4 18 5 10 6 2 7 3 8 7 9 4 10 6 11 8 12
REMARK SMILES IDX 5 13 9 14 1 15 19 18 14 20 15 21 17 23
REMARK H PARENT 1 16 1 17 19 19 15 22 17 24
ROOT
ATOM      1  C   UNL     1      44.460  35.269  15.963  1.00  0.00    +0.253 C 
ATOM      2  O   UNL     1      44.892  34.028  16.581  1.00  0.00    -0.347 OA
ATOM      3  C   UNL     1      45.691  34.365  17.731  1.00  0.00    +0.178 C 
ATOM      4  C   UNL     1      45.276  35.776  18.122  1.00  0.00    +0.179 C 
ATOM      5  C   UNL     1      45.128  36.410  16.754  1.00  0.00    +0.195 C 
ENDROOT
BRANCH   1   6
ATOM      6  N   UNL     1      43.011  35.304  15.928  1.00  0.00    -0.285 N 
ATOM      7  C   UNL     1      39.967  35.408  14.202  1.00  0.00    +0.155 A 
ATOM      8  N   UNL     1      40.366  35.467  12.910  1.00  0.00    -0.217 NA
ATOM      9  C   UNL     1      40.949  35.344  15.203  1.00  0.00    +0.150 A 
ATOM     10  C   UNL     1      41.689  35.495  12.646  1.00  0.00    +0.226 A 
ATOM     11  C   UNL     1      42.267  35.370  14.780  1.00  0.00    +0.167 A 
ATOM     12  N   UNL     1      40.881  35.246  16.577  1.00  0.00    -0.231 NA
ATOM     13  N   UNL     1      42.723  35.459  13.517  1.00  0.00    -0.216 NA
ATOM     14  C   UNL     1      42.136  35.217  16.977  1.00  0.00    +0.204 A 
BRANCH   7  15
ATOM     15  N   UNL     1      38.605  35.394  14.469  1.00  0.00    -0.382 N 
ATOM     16  H   UNL     1      38.168  36.291  14.305  1.00  0.00    +0.158 HD
ATOM     17  H   UNL     1      38.131  34.566  14.124  1.00  0.00    +0.158 HD
ENDBRANCH   7  15
ENDBRANCH   1   6
BRANCH   5  18
ATOM     18  O   UNL     1      44.449  37.655  16.852  1.00  0.00    -0.386 OA
ATOM     19  H   UNL     1      44.671  38.058  17.717  1.00  0.00    +0.211 HD
ENDBRANCH   5  18
BRANCH   3  20
ATOM     20  C   UNL     1      45.505  33.365  18.869  1.00  0.00    +0.191 C 
BRANCH  20  21
ATOM     21  O   UNL     1      44.635  33.867  19.877  1.00  0.00    -0.394 OA
ATOM     22  H   UNL     1      45.181  34.182  20.625  1.00  0.00    +0.210 HD
ENDBRANCH  20  21
ENDBRANCH   3  20
BRANCH   4  23
ATOM     23  O   UNL     1      46.240  36.427  18.935  1.00  0.00    -0.387 OA
ATOM     24  H   UNL     1      45.918  36.335  19.856  1.00  0.00    +0.211 HD
ENDBRANCH   4  23
TORSDOF 6
ENDMDL
MODEL 2
REMARK VINA RESULT:    -6.665      3.279      6.123
REMARK INTER + INTRA:          -8.649
REMARK INTER:                  -8.067
REMARK INTRA:                  -0.582
REMARK UNBOUND:                -0.425
REMARK SMILES Nc1ncnc2c1ncn2[C@@H]1O[C@H](CO)[C@@H](O)[C@@H]1O
REMARK SMILES IDX 11 1 12 2 13 3 16 4 18 5 10 6 2 7 3 8 7 9 4 10 6 11 8 12
REMARK SMILES IDX 5 13 9 14 1 15 19 18 14 20 15 21 17 23
REMARK H PARENT 1 16 1 17 19 19 15 22 17 24
ROOT
ATOM      1  C   UNL     1      41.874  33.927  15.168  1.00  0.00    +0.253 C 
ATOM      2  O   UNL     1      41.585  34.626  13.929  1.00  0.00    -0.347 OA
ATOM      3  C   UNL     1      40.154  34.768  13.828  1.00  0.00    +0.178 C 
ATOM      4  C   UNL     1      39.629  34.660  15.252  1.00  0.00    +0.179 C 
ATOM      5  C   UNL     1      40.515  33.554  15.791  1.00  0.00    +0.195 C 
ENDROOT
BRANCH   1   6
ATOM      6  N   UNL     1      42.728  34.757  15.994  1.00  0.00    -0.285 N 
ATOM      7  C   UNL     1      45.383  35.184  18.236  1.00  0.00    +0.155 A 
ATOM      8  N   UNL     1      45.799  33.913  18.442  1.00  0.00    -0.217 NA
ATOM      9  C   UNL     1      44.309  35.403  17.359  1.00  0.00    +0.150 A 
ATOM     10  C   UNL     1      45.139  32.912  17.821  1.00  0.00    +0.226 A 
ATOM     11  C   UNL     1      43.739  34.279  16.785  1.00  0.00    +0.167 A 
ATOM     12  N   UNL     1      43.678  36.548  16.917  1.00  0.00    -0.231 NA
ATOM     13  N   UNL     1      44.086  32.994  16.976  1.00  0.00    -0.216 NA
ATOM     14  C   UNL     1      42.740  36.122  16.095  1.00  0.00    +0.204 A 
BRANCH   7  15
ATOM     15  N   UNL     1      46.056  36.210  18.888  1.00  0.00    -0.382 N 
ATOM     16  H   UNL     1      45.950  36.165  19.892  1.00  0.00    +0.158 HD
ATOM     17  H   UNL     1      46.982  36.390  18.515  1.00  0.00    +0.158 HD
ENDBRANCH   7  15
ENDBRANCH   1   6
BRANCH   5  18
ATOM     18  O   UNL     1      40.415  33.481  17.207  1.00  0.00    -0.386 OA
ATOM     19  H   UNL     1      39.622  33.984  17.485  1.00  0.00    +0.211 HD
ENDBRANCH   5  18
BRANCH   3  20
ATOM     20  C   UNL     1      39.756  36.079  13.157  1.00  0.00    +0.191 C 
BRANCH  20  21
ATOM     21  O   UNL     1      38.385  36.085  12.779  1.00  0.00    -0.394 OA
ATOM     22  H   UNL     1      38.068  37.011  12.787  1.00  0.00    +0.210 HD
ENDBRANCH  20  21
ENDBRANCH   3  20
BRANCH   4  23
ATOM     23  O   UNL     1      38.247  34.340  15.305  1.00  0.00    -0.387 OA
ATOM     24  H   UNL     1      37.777  35.134  14.980  1.00  0.00    +0.211 HD
ENDBRANCH   4  23
TORSDOF 6
ENDMDL
MODEL 3
REMARK VINA RESULT:    -6.547      2.976      6.087
REMARK INTER + INTRA:          -8.504
REMARK INTER:                  -7.999
REMARK INTRA:                  -0.504
REMARK UNBOUND:                -0.425
REMARK SMILES Nc1ncnc2c1ncn2[C@@H]1O[C@H](CO)[C@@H](O)[C@@H]1O
REMARK SMILES IDX 11 1 12 2 13 3 16 4 18 5 10 6 2 7 3 8 7 9 4 10 6 11 8 12
REMARK SMILES IDX 5 13 9 14 1 15 19 18 14 20 15 21 17 23
REMARK H PARENT 1 16 1 17 19 19 15 22 17 24
ROOT
ATOM      1  C   UNL     1      42.789  34.154  16.579  1.00  0.00    +0.253 C 
ATOM      2  O   UNL     1      42.817  33.658  15.215  1.00  0.00    -0.347 OA
ATOM      3  C   UNL     1      41.700  34.238  14.514  1.00  0.00    +0.178 C 
ATOM      4  C   UNL     1      41.339  35.499  15.287  1.00  0.00    +0.179 C 
ATOM      5  C   UNL     1      41.516  35.011  16.711  1.00  0.00    +0.195 C 
ENDROOT
BRANCH   1   6
ATOM      6  N   UNL     1      44.033  34.844  16.861  1.00  0.00    -0.285 N 
ATOM      7  C   UNL     1      46.918  35.347  18.779  1.00  0.00    +0.155 A 
ATOM      8  N   UNL     1      46.769  34.443  19.774  1.00  0.00    -0.217 NA
ATOM      9  C   UNL     1      45.925  35.424  17.790  1.00  0.00    +0.150 A 
ATOM     10  C   UNL     1      45.656  33.679  19.787  1.00  0.00    +0.226 A 
ATOM     11  C   UNL     1      44.845  34.569  17.929  1.00  0.00    +0.167 A 
ATOM     12  N   UNL     1      45.792  36.195  16.653  1.00  0.00    -0.231 NA
ATOM     13  N   UNL     1      44.627  33.674  18.909  1.00  0.00    -0.216 NA
ATOM     14  C   UNL     1      44.650  35.815  16.118  1.00  0.00    +0.204 A 
BRANCH   7  15
ATOM     15  N   UNL     1      48.058  36.141  18.777  1.00  0.00    -0.382 N 
ATOM     16  H   UNL     1      48.244  36.550  17.872  1.00  0.00    +0.158 HD
ATOM     17  H   UNL     1      48.139  36.737  19.594  1.00  0.00    +0.158 HD
ENDBRANCH   7  15
ENDBRANCH   1   6
BRANCH   5  18
ATOM     18  O   UNL     1      41.527  36.108  17.615  1.00  0.00    -0.386 OA
ATOM     19  H   UNL     1      42.427  36.184  17.994  1.00  0.00    +0.211 HD
ENDBRANCH   5  18
BRANCH   3  20
ATOM     20  C   UNL     1      42.029  34.523  13.052  1.00  0.00    +0.191 C 
BRANCH  20  21
ATOM     21  O   UNL     1      42.299  35.902  12.830  1.00  0.00    -0.394 OA
ATOM     22  H   UNL     1      41.820  36.422  13.507  1.00  0.00    +0.210 HD
ENDBRANCH  20  21
ENDBRANCH   3  20
BRANCH   4  23
ATOM     23  O   UNL     1      40.022  35.951  15.014  1.00  0.00    -0.387 OA
ATOM     24  H   UNL     1      40.005  36.895  15.274  1.00  0.00    +0.211 HD
ENDBRANCH   4  23
TORSDOF 6
ENDMDL
MODEL 4
REMARK VINA RESULT:    -6.331      3.144      5.901
REMARK INTER + INTRA:          -8.236
REMARK INTER:                  -7.878
REMARK INTRA:                  -0.359
REMARK UNBOUND:                -0.425
REMARK SMILES Nc1ncnc2c1ncn2[C@@H]1O[C@H](CO)[C@@H](O)[C@@H]1O
REMARK SMILES IDX 11 1 12 2 13 3 16 4 18 5 10 6 2 7 3 8 7 9 4 10 6 11 8 12
REMARK SMILES IDX 5 13 9 14 1 15 19 18 14 20 15 21 17 23
REMARK H PARENT 1 16 1 17 19 19 15 22 17 24
ROOT
ATOM      1  C   UNL     1      42.920  35.834  16.408  1.00  0.00    +0.253 C 
ATOM      2  O   UNL     1      41.613  35.288  16.725  1.00  0.00    -0.347 OA
ATOM      3  C   UNL     1      41.003  34.865  15.490  1.00  0.00    +0.178 C 
ATOM      4  C   UNL     1      42.153  34.640  14.518  1.00  0.00    +0.179 C 
ATOM      5  C   UNL     1      43.047  35.812  14.873  1.00  0.00    +0.195 C 
ENDROOT
BRANCH   1   6
ATOM      6  N   UNL     1      43.934  35.086  17.124  1.00  0.00    -0.285 N 
ATOM      7  C   UNL     1      46.838  34.907  19.073  1.00  0.00    +0.155 A 
ATOM      8  N   UNL     1      47.193  36.207  19.188  1.00  0.00    -0.217 NA
ATOM      9  C   UNL     1      45.680  34.591  18.344  1.00  0.00    +0.150 A 
ATOM     10  C   UNL     1      46.437  37.138  18.568  1.00  0.00    +0.226 A 
ATOM     11  C   UNL     1      44.999  35.653  17.773  1.00  0.00    +0.167 A 
ATOM     12  N   UNL     1      45.041  33.399  18.070  1.00  0.00    -0.231 NA
ATOM     13  N   UNL     1      45.321  36.958  17.826  1.00  0.00    -0.216 NA
ATOM     14  C   UNL     1      43.995  33.736  17.343  1.00  0.00    +0.204 A 
BRANCH   7  15
ATOM     15  N   UNL     1      47.627  33.952  19.701  1.00  0.00    -0.382 N 
ATOM     16  H   UNL     1      48.517  33.822  19.240  1.00  0.00    +0.158 HD
ATOM     17  H   UNL     1      47.620  34.021  20.713  1.00  0.00    +0.158 HD
ENDBRANCH   7  15
ENDBRANCH   1   6
BRANCH   5  18
ATOM     18  O   UNL     1      44.338  35.644  14.300  1.00  0.00    -0.386 OA
ATOM     19  H   UNL     1      44.898  36.397  14.583  1.00  0.00    +0.211 HD
ENDBRANCH   5  18
BRANCH   3  20
ATOM     20  C   UNL     1      40.143  33.618  15.676  1.00  0.00    +0.191 C 
BRANCH  20  21
ATOM     21  O   UNL     1      38.985  33.886  16.458  1.00  0.00    -0.394 OA
ATOM     22  H   UNL     1      38.434  34.536  15.978  1.00  0.00    +0.210 HD
ENDBRANCH  20  21
ENDBRANCH   3  20
BRANCH   4  23
ATOM     23  O   UNL     1      41.735  34.650  13.162  1.00  0.00    -0.387 OA
ATOM     24  H   UNL     1      41.787  33.720  12.860  1.00  0.00    +0.211 HD
ENDBRANCH   4  23
TORSDOF 6
ENDMDL
MODEL 5
REMARK VINA RESULT:    -6.225      1.827      2.774
REMARK INTER + INTRA:          -8.106
REMARK INTER:                  -7.550
REMARK INTRA:                  -0.555
REMARK UNBOUND:                -0.425
REMARK SMILES Nc1ncnc2c1ncn2[C@@H]1O[C@H](CO)[C@@H](O)[C@@H]1O
REMARK SMILES IDX 11 1 12 2 13 3 16 4 18 5 10 6 2 7 3 8 7 9 4 10 6 11 8 12
REMARK SMILES IDX 5 13 9 14 1 15 19 18 14 20 15 21 17 23
REMARK H PARENT 1 16 1 17 19 19 15 22 17 24
ROOT
ATOM      1  C   UNL     1      44.445  34.453  17.318  1.00  0.00    +0.253 C 
ATOM      2  O   UNL     1      44.898  35.407  18.313  1.00  0.00    -0.347 OA
ATOM      3  C   UNL     1      46.157  35.946  17.862  1.00  0.00    +0.178 C 
ATOM      4  C   UNL     1      46.177  35.740  16.355  1.00  0.00    +0.179 C 
ATOM      5  C   UNL     1      45.558  34.360  16.256  1.00  0.00    +0.195 C 
ENDROOT
BRANCH   1   6
ATOM      6  N   UNL     1      43.147  34.864  16.821  1.00  0.00    -0.285 N 
ATOM      7  C   UNL     1      40.042  34.177  15.356  1.00  0.00    +0.155 A 
ATOM      8  N   UNL     1      40.118  32.847  15.120  1.00  0.00    -0.217 NA
ATOM      9  C   UNL     1      41.136  34.813  15.962  1.00  0.00    +0.150 A 
ATOM     10  C   UNL     1      41.257  32.199  15.449  1.00  0.00    +0.226 A 
ATOM     11  C   UNL     1      42.232  34.017  16.253  1.00  0.00    +0.167 A 
ATOM     12  N   UNL     1      41.362  36.115  16.358  1.00  0.00    -0.231 NA
ATOM     13  N   UNL     1      42.378  32.702  16.014  1.00  0.00    -0.216 NA
ATOM     14  C   UNL     1      42.575  36.107  16.874  1.00  0.00    +0.204 A 
BRANCH   7  15
ATOM     15  N   UNL     1      38.875  34.841  15.003  1.00  0.00    -0.382 N 
ATOM     16  H   UNL     1      38.690  35.640  15.594  1.00  0.00    +0.158 HD
ATOM     17  H   UNL     1      38.758  34.953  14.002  1.00  0.00    +0.158 HD
ENDBRANCH   7  15
ENDBRANCH   1   6
BRANCH   5  18
ATOM     18  O   UNL     1      45.192  34.072  14.913  1.00  0.00    -0.386 OA
ATOM     19  H   UNL     1      45.694  34.673  14.324  1.00  0.00    +0.211 HD
ENDBRANCH   5  18
BRANCH   3  20
ATOM     20  C   UNL     1      46.322  37.412  18.253  1.00  0.00    +0.191 C 
BRANCH  20  21
ATOM     21  O   UNL     1      45.391  38.248  17.577  1.00  0.00    -0.394 OA
ATOM     22  H   UNL     1      44.571  37.734  17.424  1.00  0.00    +0.210 HD
ENDBRANCH  20  21
ENDBRANCH   3  20
BRANCH   4  23
ATOM     23  O   UNL     1      47.486  35.802  15.810  1.00  0.00    -0.387 OA
ATOM     24  H   UNL     1      48.092  35.853  16.577  1.00  0.00    +0.211 HD
ENDBRANCH   4  23
TORSDOF 6
ENDMDL
MODEL 6
REMARK VINA RESULT:    -6.141      3.677      4.199
REMARK INTER + INTRA:          -8.003
REMARK INTER:                  -7.420
REMARK INTRA:                  -0.583
REMARK UNBOUND:                -0.425
REMARK SMILES Nc1ncnc2c1ncn2[C@@H]1O[C@H](CO)[C@@H](O)[C@@H]1O
REMARK SMILES IDX 11 1 12 2 13 3 16 4 18 5 10 6 2 7 3 8 7 9 4 10 6 11 8 12
REMARK SMILES IDX 5 13 9 14 1 15 19 18 14 20 15 21 17 23
REMARK H PARENT 1 16 1 17 19 19 15 22 17 24
ROOT
ATOM      1  C   UNL     1      42.947  34.373  14.493  1.00  0.00    +0.253 C 
ATOM      2  O   UNL     1      44.076  34.681  15.351  1.00  0.00    -0.347 OA
ATOM      3  C   UNL     1      43.668  35.725  16.257  1.00  0.00    +0.178 C 
ATOM      4  C   UNL     1      42.149  35.647  16.317  1.00  0.00    +0.179 C 
ATOM      5  C   UNL     1      41.829  35.367  14.862  1.00  0.00    +0.195 C 
ENDROOT
BRANCH   1   6
ATOM      6  N   UNL     1      42.605  32.973  14.642  1.00  0.00    -0.285 N 
ATOM      7  C   UNL     1      41.650  29.871  13.326  1.00  0.00    +0.155 A 
ATOM      8  N   UNL     1      41.515  30.142  12.008  1.00  0.00    -0.217 NA
ATOM      9  C   UNL     1      42.043  30.909  14.186  1.00  0.00    +0.150 A 
ATOM     10  C   UNL     1      41.733  31.406  11.585  1.00  0.00    +0.226 A 
ATOM     11  C   UNL     1      42.242  32.151  13.607  1.00  0.00    +0.167 A 
ATOM     12  N   UNL     1      42.296  30.958  15.542  1.00  0.00    -0.231 NA
ATOM     13  N   UNL     1      42.093  32.488  12.314  1.00  0.00    -0.216 NA
ATOM     14  C   UNL     1      42.636  32.209  15.778  1.00  0.00    +0.204 A 
BRANCH   7  15
ATOM     15  N   UNL     1      41.412  28.573  13.758  1.00  0.00    -0.382 N 
ATOM     16  H   UNL     1      40.453  28.287  13.613  1.00  0.00    +0.158 HD
ATOM     17  H   UNL     1      42.146  27.920  13.507  1.00  0.00    +0.158 HD
ENDBRANCH   7  15
ENDBRANCH   1   6
BRANCH   5  18
ATOM     18  O   UNL     1      40.477  34.952  14.719  1.00  0.00    -0.386 OA
ATOM     19  H   UNL     1      40.462  34.140  14.171  1.00  0.00    +0.211 HD
ENDBRANCH   5  18
BRANCH   3  20
ATOM     20  C   UNL     1      44.314  35.574  17.631  1.00  0.00    +0.191 C 
BRANCH  20  21
ATOM     21  O   UNL     1      43.408  35.895  18.680  1.00  0.00    -0.394 OA
ATOM     22  H   UNL     1      43.885  35.816  19.532  1.00  0.00    +0.210 HD
ENDBRANCH  20  21
ENDBRANCH   3  20
BRANCH   4  23
ATOM     23  O   UNL     1      41.556  36.844  16.796  1.00  0.00    -0.387 OA
ATOM     24  H   UNL     1      42.282  37.352  17.213  1.00  0.00    +0.211 HD
ENDBRANCH   4  23
TORSDOF 6
ENDMDL
MODEL 7
REMARK VINA RESULT:    -6.068      2.306      3.162
REMARK INTER + INTRA:          -7.913
REMARK INTER:                  -7.266
REMARK INTRA:                  -0.646
REMARK UNBOUND:                -0.425
REMARK SMILES Nc1ncnc2c1ncn2[C@@H]1O[C@H](CO)[C@@H](O)[C@@H]1O
REMARK SMILES IDX 11 1 12 2 13 3 16 4 18 5 10 6 2 7 3 8 7 9 4 10 6 11 8 12
REMARK SMILES IDX 5 13 9 14 1 15 19 18 14 20 15 21 17 23
REMARK H PARENT 1 16 1 17 19 19 15 22 17 24
ROOT
ATOM      1  C   UNL     1      44.226  35.878  16.071  1.00  0.00    +0.253 C 
ATOM      2  O   UNL     1      45.579  36.048  15.574  1.00  0.00    -0.347 OA
ATOM      3  C   UNL     1      46.404  36.463  16.681  1.00  0.00    +0.178 C 
ATOM      4  C   UNL     1      45.674  36.002  17.934  1.00  0.00    +0.179 C 
ATOM      5  C   UNL     1      44.241  36.311  17.550  1.00  0.00    +0.195 C 
ENDROOT
BRANCH   1   6
ATOM      6  N   UNL     1      43.798  34.515  15.829  1.00  0.00    -0.285 N 
ATOM      7  C   UNL     1      41.309  32.098  15.355  1.00  0.00    +0.155 A 
ATOM      8  N   UNL     1      40.172  32.819  15.493  1.00  0.00    -0.217 NA
ATOM      9  C   UNL     1      42.540  32.761  15.476  1.00  0.00    +0.150 A 
ATOM     10  C   UNL     1      40.275  34.135  15.774  1.00  0.00    +0.226 A 
ATOM     11  C   UNL     1      42.489  34.116  15.755  1.00  0.00    +0.167 A 
ATOM     12  N   UNL     1      43.848  32.337  15.362  1.00  0.00    -0.231 NA
ATOM     13  N   UNL     1      41.394  34.877  15.934  1.00  0.00    -0.216 NA
ATOM     14  C   UNL     1      44.574  33.416  15.574  1.00  0.00    +0.204 A 
BRANCH   7  15
ATOM     15  N   UNL     1      41.198  30.742  15.080  1.00  0.00    -0.382 N 
ATOM     16  H   UNL     1      41.818  30.445  14.338  1.00  0.00    +0.158 HD
ATOM     17  H   UNL     1      41.138  30.162  15.910  1.00  0.00    +0.158 HD
ENDBRANCH   7  15
ENDBRANCH   1   6
BRANCH   5  18
ATOM     18  O   UNL     1      43.337  35.684  18.450  1.00  0.00    -0.386 OA
ATOM     19  H   UNL     1      43.007  36.363  19.075  1.00  0.00    +0.211 HD
ENDBRANCH   5  18
BRANCH   3  20
ATOM     20  C   UNL     1      47.817  35.895  16.584  1.00  0.00    +0.191 C 
BRANCH  20  21
ATOM     21  O   UNL     1      48.731  36.607  17.410  1.00  0.00    -0.394 OA
ATOM     22  H   UNL     1      48.356  37.493  17.589  1.00  0.00    +0.210 HD
ENDBRANCH  20  21
ENDBRANCH   3  20
BRANCH   4  23
ATOM     23  O   UNL     1      46.098  36.690  19.101  1.00  0.00    -0.387 OA
ATOM     24  H   UNL     1      47.036  36.444  19.230  1.00  0.00    +0.211 HD
ENDBRANCH   4  23
TORSDOF 6
ENDMDL
MODEL 8
REMARK VINA RESULT:    -5.847      2.000      3.675
REMARK INTER + INTRA:          -7.639
REMARK INTER:                  -7.895
REMARK INTRA:                   0.256
REMARK UNBOUND:                -0.425
REMARK SMILES Nc1ncnc2c1ncn2[C@@H]1O[C@H](CO)[C@@H](O)[C@@H]1O
REMARK SMILES IDX 11 1 12 2 13 3 16 4 18 5 10 6 2 7 3 8 7 9 4 10 6 11 8 12
REMARK SMILES IDX 5 13 9 14 1 15 19 18 14 20 15 21 17 23
REMARK H PARENT 1 16 1 17 19 19 15 22 17 24
ROOT
ATOM      1  C   UNL     1      45.563  35.616  18.039  1.00  0.00    +0.253 C 
ATOM      2  O   UNL     1      45.506  36.979  18.536  1.00  0.00    -0.347 OA
ATOM      3  C   UNL     1      46.836  37.354  18.943  1.00  0.00    +0.178 C 
ATOM      4  C   UNL     1      47.776  36.433  18.178  1.00  0.00    +0.179 C 
ATOM      5  C   UNL     1      47.008  35.128  18.255  1.00  0.00    +0.195 C 
ENDROOT
BRANCH   1   6
ATOM      6  N   UNL     1      45.098  35.591  16.666  1.00  0.00    -0.285 N 
ATOM      7  C   UNL     1      42.561  35.796  14.262  1.00  0.00    +0.155 A 
ATOM      8  N   UNL     1      41.453  35.963  15.019  1.00  0.00    -0.217 NA
ATOM      9  C   UNL     1      43.802  35.682  14.907  1.00  0.00    +0.150 A 
ATOM     10  C   UNL     1      41.589  35.980  16.363  1.00  0.00    +0.226 A 
ATOM     11  C   UNL     1      43.787  35.729  16.291  1.00  0.00    +0.167 A 
ATOM     12  N   UNL     1      45.092  35.539  14.439  1.00  0.00    -0.231 NA
ATOM     13  N   UNL     1      42.718  35.861  17.097  1.00  0.00    -0.216 NA
ATOM     14  C   UNL     1      45.842  35.494  15.522  1.00  0.00    +0.204 A 
BRANCH   7  15
ATOM     15  N   UNL     1      42.415  35.766  12.881  1.00  0.00    -0.382 N 
ATOM     16  H   UNL     1      43.202  36.178  12.399  1.00  0.00    +0.158 HD
ATOM     17  H   UNL     1      42.050  34.886  12.530  1.00  0.00    +0.158 HD
ENDBRANCH   7  15
ENDBRANCH   1   6
BRANCH   5  18
ATOM     18  O   UNL     1      47.546  34.178  17.344  1.00  0.00    -0.386 OA
ATOM     19  H   UNL     1      46.835  33.550  17.101  1.00  0.00    +0.211 HD
ENDBRANCH   5  18
BRANCH   3  20
ATOM     20  C   UNL     1      47.120  38.829  18.678  1.00  0.00    +0.191 C 
BRANCH  20  21
ATOM     21  O   UNL     1      45.951  39.527  18.265  1.00  0.00    -0.394 OA
ATOM     22  H   UNL     1      46.162  40.482  18.224  1.00  0.00    +0.210 HD
ENDBRANCH  20  21
ENDBRANCH   3  20
BRANCH   4  23
ATOM     23  O   UNL     1      49.065  36.354  18.764  1.00  0.00    -0.387 OA
ATOM     24  H   UNL     1      49.013  36.869  19.595  1.00  0.00    +0.211 HD
ENDBRANCH   4  23
TORSDOF 6
ENDMDL
MODEL 9
REMARK VINA RESULT:    -5.831      4.300      5.951
REMARK INTER + INTRA:          -7.619
REMARK INTER:                  -7.236
REMARK INTRA:                  -0.383
REMARK UNBOUND:                -0.425
REMARK SMILES Nc1ncnc2c1ncn2[C@@H]1O[C@H](CO)[C@@H](O)[C@@H]1O
REMARK SMILES IDX 11 1 12 2 13 3 16 4 18 5 10 6 2 7 3 8 7 9 4 10 6 11 8 12
REMARK SMILES IDX 5 13 9 14 1 15 19 18 14 20 15 21 17 23
REMARK H PARENT 1 16 1 17 19 19 15 22 17 24
ROOT
ATOM      1  C   UNL     1      40.561  33.400  15.486  1.00  0.00    +0.253 C 
ATOM      2  O   UNL     1      39.740  34.245  14.638  1.00  0.00    -0.347 OA
ATOM      3  C   UNL     1      39.974  35.614  15.024  1.00  0.00    +0.178 C 
ATOM      4  C   UNL     1      41.334  35.622  15.708  1.00  0.00    +0.179 C 
ATOM      5  C   UNL     1      41.253  34.332  16.499  1.00  0.00    +0.195 C 
ENDROOT
BRANCH   1   6
ATOM      6  N   UNL     1      41.452  32.615  14.656  1.00  0.00    -0.285 N 
ATOM      7  C   UNL     1      43.034  29.608  13.809  1.00  0.00    +0.155 A 
ATOM      8  N   UNL     1      42.593  28.765  14.771  1.00  0.00    -0.217 NA
ATOM      9  C   UNL     1      42.585  30.938  13.827  1.00  0.00    +0.150 A 
ATOM     10  C   UNL     1      41.768  29.250  15.723  1.00  0.00    +0.226 A 
ATOM     11  C   UNL     1      41.731  31.289  14.860  1.00  0.00    +0.167 A 
ATOM     12  N   UNL     1      42.812  32.015  12.996  1.00  0.00    -0.231 NA
ATOM     13  N   UNL     1      41.286  30.507  15.859  1.00  0.00    -0.216 NA
ATOM     14  C   UNL     1      42.112  33.001  13.520  1.00  0.00    +0.204 A 
BRANCH   7  15
ATOM     15  N   UNL     1      43.893  29.107  12.840  1.00  0.00    -0.382 N 
ATOM     16  H   UNL     1      44.829  28.956  13.192  1.00  0.00    +0.158 HD
ATOM     17  H   UNL     1      43.479  28.381  12.266  1.00  0.00    +0.158 HD
ENDBRANCH   7  15
ENDBRANCH   1   6
BRANCH   5  18
ATOM     18  O   UNL     1      42.537  33.967  16.990  1.00  0.00    -0.386 OA
ATOM     19  H   UNL     1      42.802  33.128  16.559  1.00  0.00    +0.211 HD
ENDBRANCH   5  18
BRANCH   3  20
ATOM     20  C   UNL     1      39.915  36.562  13.829  1.00  0.00    +0.191 C 
BRANCH  20  21
ATOM     21  O   UNL     1      39.089  36.052  12.790  1.00  0.00    -0.394 OA
ATOM     22  H   UNL     1      38.516  35.354  13.168  1.00  0.00    +0.210 HD
ENDBRANCH  20  21
ENDBRANCH   3  20
BRANCH   4  23
ATOM     23  O   UNL     1      41.529  36.765  16.526  1.00  0.00    -0.387 OA
ATOM     24  H   UNL     1      42.499  36.886  16.588  1.00  0.00    +0.211 HD
ENDBRANCH   4  23
TORSDOF 6
ENDMDL
