MODEL 1
REMARK VINA RESULT:    -9.744      0.000      0.000
REMARK INTER + INTRA:         -11.448
REMARK INTER:                 -11.738
REMARK INTRA:                   0.290
REMARK UNBOUND:                 0.290
REMARK SMILES N#Cc1ccccc1Cn1c(N2CCC[C@@H](N)C2)nc2ccccc2c1=O
REMARK SMILES IDX 10 1 11 2 19 3 20 4 21 5 22 6 23 7 24 8 25 9 26 10 27 11
REMARK SMILES IDX 9 12 8 13 1 14 2 15 3 16 4 17 5 18 7 19 6 20 12 21 13 22
REMARK SMILES IDX 18 23 14 24 16 25 15 26 17 27
REMARK H PARENT 17 28 17 29
ROOT
ATOM      1  N   UNL     1      42.325  34.202  13.833  1.00  0.00    -0.274 N 
ATOM      2  C   UNL     1      43.336  33.611  14.581  1.00  0.00    +0.209 C 
ATOM      3  N   UNL     1      43.864  32.465  14.260  1.00  0.00    -0.214 NA
ATOM      4  C   UNL     1      43.395  31.790  13.128  1.00  0.00    +0.080 A 
ATOM      5  C   UNL     1      43.970  30.562  12.789  1.00  0.00    +0.029 A 
ATOM      6  C   UNL     1      43.533  29.856  11.664  1.00  0.00    +0.002 A 
ATOM      7  C   UNL     1      42.512  30.374  10.867  1.00  0.00    +0.001 A 
ATOM      8  C   UNL     1      41.930  31.597  11.197  1.00  0.00    +0.016 A 
ATOM      9  C   UNL     1      42.377  32.295  12.326  1.00  0.00    +0.066 A 
ATOM     10  C   UNL     1      41.797  33.594  12.697  1.00  0.00    +0.263 C 
ATOM     11  O   UNL     1      40.912  34.080  11.996  1.00  0.00    -0.268 OA
ENDROOT
BRANCH   1  12
ATOM     12  C   UNL     1      41.805  35.522  14.186  1.00  0.00    +0.166 C 
BRANCH  12  13
ATOM     13  C   UNL     1      40.299  35.696  13.999  1.00  0.00    -0.010 A 
ATOM     14  N   UNL     1      40.246  33.186  16.498  1.00  0.00    -0.192 NA
ATOM     15  C   UNL     1      39.862  33.929  15.694  1.00  0.00    +0.099 C 
ATOM     16  C   UNL     1      39.398  34.883  14.727  1.00  0.00    +0.057 A 
ATOM     17  C   UNL     1      38.013  35.007  14.530  1.00  0.00    +0.020 A 
ATOM     18  C   UNL     1      37.509  35.931  13.616  1.00  0.00    +0.001 A 
ATOM     19  C   UNL     1      39.765  36.614  13.076  1.00  0.00    +0.007 A 
ATOM     20  C   UNL     1      38.385  36.734  12.893  1.00  0.00    +0.000 A 
ENDBRANCH  12  13
ENDBRANCH   1  12
BRANCH   2  21
ATOM     21  N   UNL     1      43.798  34.272  15.707  1.00  0.00    -0.341 N 
ATOM     22  C   UNL     1      43.851  33.462  16.946  1.00  0.00    +0.120 C 
ATOM     23  C   UNL     1      44.939  35.202  15.521  1.00  0.00    +0.138 C 
ATOM     24  C   UNL     1      44.637  34.168  18.042  1.00  0.00    +0.023 C 
ATOM     25  C   UNL     1      46.256  34.652  16.118  1.00  0.00    +0.070 C 
ATOM     26  C   UNL     1      46.091  34.407  17.628  1.00  0.00    +0.022 C 
BRANCH  25  27
ATOM     27  N   UNL     1      46.692  33.407  15.459  1.00  0.00    -0.326 NA
ATOM     28  H   UNL     1      45.913  32.731  15.500  1.00  0.00    +0.119 HD
ATOM     29  H   UNL     1      46.792  33.576  14.457  1.00  0.00    +0.119 HD
ENDBRANCH  25  27
ENDBRANCH   2  21
TORSDOF 4
ENDMDL
MODEL 2
REMARK VINA RESULT:    -9.081      2.024      5.345
REMARK INTER + INTRA:         -10.649
REMARK INTER:                  -9.669
REMARK INTRA:                  -0.980
REMARK UNBOUND:                 0.290
REMARK SMILES N#Cc1ccccc1Cn1c(N2CCC[C@@H](N)C2)nc2ccccc2c1=O
REMARK SMILES IDX 10 1 11 2 19 3 20 4 21 5 22 6 23 7 24 8 25 9 26 10 27 11
REMARK SMILES IDX 9 12 8 13 1 14 2 15 3 16 4 17 5 18 7 19 6 20 12 21 13 22
REMARK SMILES IDX 18 23 14 24 16 25 15 26 17 27
REMARK H PARENT 17 28 17 29
ROOT
ATOM      1  N   UNL     1      43.840  31.947  14.349  1.00  0.00    -0.274 N 
ATOM      2  C   UNL     1      42.740  32.708  13.974  1.00  0.00    +0.209 C 
ATOM      3  N   UNL     1      42.096  32.505  12.861  1.00  0.00    -0.214 NA
ATOM      4  C   UNL     1      42.527  31.492  11.998  1.00  0.00    +0.080 A 
ATOM      5  C   UNL     1      41.828  31.279  10.807  1.00  0.00    +0.029 A 
ATOM      6  C   UNL     1      42.224  30.274   9.918  1.00  0.00    +0.002 A 
ATOM      7  C   UNL     1      43.327  29.473  10.214  1.00  0.00    +0.001 A 
ATOM      8  C   UNL     1      44.033  29.678  11.399  1.00  0.00    +0.016 A 
ATOM      9  C   UNL     1      43.626  30.688  12.280  1.00  0.00    +0.066 A 
ATOM     10  C   UNL     1      44.337  30.923  13.546  1.00  0.00    +0.263 C 
ATOM     11  O   UNL     1      45.297  30.215  13.837  1.00  0.00    -0.268 OA
ENDROOT
BRANCH   1  12
ATOM     12  C   UNL     1      44.494  32.159  15.639  1.00  0.00    +0.166 C 
BRANCH  12  13
ATOM     13  C   UNL     1      45.609  33.203  15.635  1.00  0.00    -0.010 A 
ATOM     14  N   UNL     1      44.561  33.545  19.002  1.00  0.00    -0.192 NA
ATOM     15  C   UNL     1      45.133  33.753  18.014  1.00  0.00    +0.099 C 
ATOM     16  C   UNL     1      45.863  33.971  16.796  1.00  0.00    +0.057 A 
ATOM     17  C   UNL     1      46.858  34.961  16.789  1.00  0.00    +0.020 A 
ATOM     18  C   UNL     1      47.608  35.200  15.638  1.00  0.00    +0.001 A 
ATOM     19  C   UNL     1      46.374  33.470  14.485  1.00  0.00    +0.007 A 
ATOM     20  C   UNL     1      47.367  34.453  14.490  1.00  0.00    +0.000 A 
ENDBRANCH  12  13
ENDBRANCH   1  12
BRANCH   2  21
ATOM     21  N   UNL     1      42.315  33.718  14.821  1.00  0.00    -0.341 N 
ATOM     22  C   UNL     1      42.938  35.043  14.598  1.00  0.00    +0.120 C 
ATOM     23  C   UNL     1      40.868  33.756  15.150  1.00  0.00    +0.138 C 
ATOM     24  C   UNL     1      42.207  36.140  15.360  1.00  0.00    +0.023 C 
ATOM     25  C   UNL     1      40.135  34.932  14.462  1.00  0.00    +0.070 C 
ATOM     26  C   UNL     1      40.752  36.271  14.902  1.00  0.00    +0.022 C 
BRANCH  25  27
ATOM     27  N   UNL     1      40.170  34.831  12.991  1.00  0.00    -0.326 NA
ATOM     28  H   UNL     1      40.905  34.153  12.732  1.00  0.00    +0.119 HD
ATOM     29  H   UNL     1      39.316  34.373  12.668  1.00  0.00    +0.119 HD
ENDBRANCH  25  27
ENDBRANCH   2  21
TORSDOF 4
ENDMDL
MODEL 3
REMARK VINA RESULT:    -8.993      2.557      5.828
REMARK INTER + INTRA:         -10.543
REMARK INTER:                  -9.391
REMARK INTRA:                  -1.152
REMARK UNBOUND:                 0.290
REMARK SMILES N#Cc1ccccc1Cn1c(N2CCC[C@@H](N)C2)nc2ccccc2c1=O
REMARK SMILES IDX 10 1 11 2 19 3 20 4 21 5 22 6 23 7 24 8 25 9 26 10 27 11
REMARK SMILES IDX 9 12 8 13 1 14 2 15 3 16 4 17 5 18 7 19 6 20 12 21 13 22
REMARK SMILES IDX 18 23 14 24 16 25 15 26 17 27
REMARK H PARENT 17 28 17 29
ROOT
ATOM      1  N   UNL     1      43.307  34.901  16.551  1.00  0.00    -0.274 N 
ATOM      2  C   UNL     1      43.841  34.165  15.500  1.00  0.00    +0.209 C 
ATOM      3  N   UNL     1      43.324  34.176  14.306  1.00  0.00    -0.214 NA
ATOM      4  C   UNL     1      42.181  34.945  14.063  1.00  0.00    +0.080 A 
ATOM      5  C   UNL     1      41.635  34.953  12.776  1.00  0.00    +0.029 A 
ATOM      6  C   UNL     1      40.496  35.711  12.490  1.00  0.00    +0.002 A 
ATOM      7  C   UNL     1      39.890  36.469  13.493  1.00  0.00    +0.001 A 
ATOM      8  C   UNL     1      40.425  36.466  14.780  1.00  0.00    +0.016 A 
ATOM      9  C   UNL     1      41.567  35.703  15.054  1.00  0.00    +0.066 A 
ATOM     10  C   UNL     1      42.168  35.688  16.395  1.00  0.00    +0.263 C 
ATOM     11  O   UNL     1      41.664  36.365  17.288  1.00  0.00    -0.268 OA
ENDROOT
BRANCH   1  12
ATOM     12  C   UNL     1      43.955  34.918  17.861  1.00  0.00    +0.166 C 
BRANCH  12  13
ATOM     13  C   UNL     1      45.224  35.763  17.944  1.00  0.00    -0.010 A 
ATOM     14  N   UNL     1      46.434  32.818  19.498  1.00  0.00    -0.192 NA
ATOM     15  C   UNL     1      46.409  33.910  19.108  1.00  0.00    +0.099 C 
ATOM     16  C   UNL     1      46.377  35.247  18.583  1.00  0.00    +0.057 A 
ATOM     17  C   UNL     1      47.535  36.032  18.701  1.00  0.00    +0.020 A 
ATOM     18  C   UNL     1      47.563  37.330  18.192  1.00  0.00    +0.001 A 
ATOM     19  C   UNL     1      45.276  37.078  17.447  1.00  0.00    +0.007 A 
ATOM     20  C   UNL     1      46.436  37.849  17.564  1.00  0.00    +0.000 A 
ENDBRANCH  12  13
ENDBRANCH   1  12
BRANCH   2  21
ATOM     21  N   UNL     1      44.967  33.394  15.739  1.00  0.00    -0.341 N 
ATOM     22  C   UNL     1      44.715  32.055  16.317  1.00  0.00    +0.120 C 
ATOM     23  C   UNL     1      46.042  33.440  14.715  1.00  0.00    +0.138 C 
ATOM     24  C   UNL     1      45.959  31.180  16.266  1.00  0.00    +0.023 C 
ATOM     25  C   UNL     1      46.134  32.132  13.895  1.00  0.00    +0.070 C 
ATOM     26  C   UNL     1      46.423  30.942  14.826  1.00  0.00    +0.022 C 
BRANCH  25  27
ATOM     27  N   UNL     1      44.908  31.868  13.121  1.00  0.00    -0.326 NA
ATOM     28  H   UNL     1      45.179  31.422  12.230  1.00  0.00    +0.119 HD
ATOM     29  H   UNL     1      44.370  31.134  13.586  1.00  0.00    +0.119 HD
ENDBRANCH  25  27
ENDBRANCH   2  21
TORSDOF 4
ENDMDL
MODEL 4
REMARK VINA RESULT:    -8.756      2.146      6.249
REMARK INTER + INTRA:         -10.257
REMARK INTER:                  -9.124
REMARK INTRA:                  -1.133
REMARK UNBOUND:                 0.290
REMARK SMILES N#Cc1ccccc1Cn1c(N2CCC[C@@H](N)C2)nc2ccccc2c1=O
REMARK SMILES IDX 10 1 11 2 19 3 20 4 21 5 22 6 23 7 24 8 25 9 26 10 27 11
REMARK SMILES IDX 9 12 8 13 1 14 2 15 3 16 4 17 5 18 7 19 6 20 12 21 13 22
REMARK SMILES IDX 18 23 14 24 16 25 15 26 17 27
REMARK H PARENT 17 28 17 29
ROOT
ATOM      1  N   UNL     1      42.647  32.819  15.560  1.00  0.00    -0.274 N 
ATOM      2  C   UNL     1      42.018  34.016  15.243  1.00  0.00    +0.209 C 
ATOM      3  N   UNL     1      42.574  35.175  15.452  1.00  0.00    -0.214 NA
ATOM      4  C   UNL     1      43.848  35.227  16.028  1.00  0.00    +0.080 A 
ATOM      5  C   UNL     1      44.438  36.475  16.245  1.00  0.00    +0.029 A 
ATOM      6  C   UNL     1      45.711  36.572  16.815  1.00  0.00    +0.002 A 
ATOM      7  C   UNL     1      46.406  35.417  17.175  1.00  0.00    +0.001 A 
ATOM      8  C   UNL     1      45.826  34.167  16.964  1.00  0.00    +0.016 A 
ATOM      9  C   UNL     1      44.550  34.084  16.393  1.00  0.00    +0.066 A 
ATOM     10  C   UNL     1      43.912  32.783  16.141  1.00  0.00    +0.263 C 
ATOM     11  O   UNL     1      44.516  31.752  16.430  1.00  0.00    -0.268 OA
ENDROOT
BRANCH   1  12
ATOM     12  C   UNL     1      42.020  31.536  15.247  1.00  0.00    +0.166 C 
BRANCH  12  13
ATOM     13  C   UNL     1      42.492  30.884  13.950  1.00  0.00    -0.010 A 
ATOM     14  N   UNL     1      43.182  28.216  16.176  1.00  0.00    -0.192 NA
ATOM     15  C   UNL     1      43.147  28.831  15.193  1.00  0.00    +0.099 C 
ATOM     16  C   UNL     1      43.058  29.587  13.975  1.00  0.00    +0.057 A 
ATOM     17  C   UNL     1      43.533  28.997  12.793  1.00  0.00    +0.020 A 
ATOM     18  C   UNL     1      43.454  29.681  11.581  1.00  0.00    +0.001 A 
ATOM     19  C   UNL     1      42.432  31.556  12.715  1.00  0.00    +0.007 A 
ATOM     20  C   UNL     1      42.901  30.957  11.543  1.00  0.00    +0.000 A 
ENDBRANCH  12  13
ENDBRANCH   1  12
BRANCH   2  21
ATOM     21  N   UNL     1      40.753  33.970  14.681  1.00  0.00    -0.341 N 
ATOM     22  C   UNL     1      39.626  34.019  15.639  1.00  0.00    +0.120 C 
ATOM     23  C   UNL     1      40.544  34.742  13.430  1.00  0.00    +0.138 C 
ATOM     24  C   UNL     1      38.300  34.262  14.931  1.00  0.00    +0.023 C 
ATOM     25  C   UNL     1      39.674  36.002  13.651  1.00  0.00    +0.070 C 
ATOM     26  C   UNL     1      38.291  35.603  14.194  1.00  0.00    +0.022 C 
BRANCH  25  27
ATOM     27  N   UNL     1      40.307  36.966  14.571  1.00  0.00    -0.326 NA
ATOM     28  H   UNL     1      39.908  37.900  14.384  1.00  0.00    +0.119 HD
ATOM     29  H   UNL     1      39.994  36.773  15.523  1.00  0.00    +0.119 HD
ENDBRANCH  25  27
ENDBRANCH   2  21
TORSDOF 4
ENDMDL
MODEL 5
REMARK VINA RESULT:    -8.524      2.718      6.193
REMARK INTER + INTRA:          -9.979
REMARK INTER:                  -8.766
REMARK INTRA:                  -1.213
REMARK UNBOUND:                 0.290
REMARK SMILES N#Cc1ccccc1Cn1c(N2CCC[C@@H](N)C2)nc2ccccc2c1=O
REMARK SMILES IDX 10 1 11 2 19 3 20 4 21 5 22 6 23 7 24 8 25 9 26 10 27 11
REMARK SMILES IDX 9 12 8 13 1 14 2 15 3 16 4 17 5 18 7 19 6 20 12 21 13 22
REMARK SMILES IDX 18 23 14 24 16 25 15 26 17 27
REMARK H PARENT 17 28 17 29
ROOT
ATOM      1  N   UNL     1      45.023  33.489  14.977  1.00  0.00    -0.274 N 
ATOM      2  C   UNL     1      45.078  34.564  15.856  1.00  0.00    +0.209 C 
ATOM      3  N   UNL     1      44.101  35.414  15.980  1.00  0.00    -0.214 NA
ATOM      4  C   UNL     1      42.952  35.256  15.197  1.00  0.00    +0.080 A 
ATOM      5  C   UNL     1      41.907  36.172  15.341  1.00  0.00    +0.029 A 
ATOM      6  C   UNL     1      40.740  36.047  14.581  1.00  0.00    +0.002 A 
ATOM      7  C   UNL     1      40.610  35.002  13.665  1.00  0.00    +0.001 A 
ATOM      8  C   UNL     1      41.648  34.083  13.513  1.00  0.00    +0.016 A 
ATOM      9  C   UNL     1      42.811  34.219  14.281  1.00  0.00    +0.066 A 
ATOM     10  C   UNL     1      43.920  33.261  14.158  1.00  0.00    +0.263 C 
ATOM     11  O   UNL     1      43.817  32.320  13.375  1.00  0.00    -0.268 OA
ENDROOT
BRANCH   1  12
ATOM     12  C   UNL     1      46.112  32.515  14.915  1.00  0.00    +0.166 C 
BRANCH  12  13
ATOM     13  C   UNL     1      47.047  32.666  13.717  1.00  0.00    -0.010 A 
ATOM     14  N   UNL     1      46.151  29.266  13.278  1.00  0.00    -0.192 NA
ATOM     15  C   UNL     1      46.692  30.279  13.111  1.00  0.00    +0.099 C 
ATOM     16  C   UNL     1      47.323  31.551  12.891  1.00  0.00    +0.057 A 
ATOM     17  C   UNL     1      48.214  31.670  11.812  1.00  0.00    +0.020 A 
ATOM     18  C   UNL     1      48.839  32.886  11.543  1.00  0.00    +0.001 A 
ATOM     19  C   UNL     1      47.698  33.879  13.429  1.00  0.00    +0.007 A 
ATOM     20  C   UNL     1      48.578  33.989  12.350  1.00  0.00    +0.000 A 
ENDBRANCH  12  13
ENDBRANCH   1  12
BRANCH   2  21
ATOM     21  N   UNL     1      46.217  34.731  16.626  1.00  0.00    -0.341 N 
ATOM     22  C   UNL     1      47.109  35.838  16.216  1.00  0.00    +0.120 C 
ATOM     23  C   UNL     1      46.067  34.561  18.093  1.00  0.00    +0.138 C 
ATOM     24  C   UNL     1      48.160  36.132  17.277  1.00  0.00    +0.023 C 
ATOM     25  C   UNL     1      46.158  35.903  18.857  1.00  0.00    +0.070 C 
ATOM     26  C   UNL     1      47.521  36.568  18.598  1.00  0.00    +0.022 C 
BRANCH  25  27
ATOM     27  N   UNL     1      45.076  36.833  18.488  1.00  0.00    -0.326 NA
ATOM     28  H   UNL     1      44.539  37.058  19.341  1.00  0.00    +0.119 HD
ATOM     29  H   UNL     1      45.483  37.734  18.233  1.00  0.00    +0.119 HD
ENDBRANCH  25  27
ENDBRANCH   2  21
TORSDOF 4
ENDMDL
