MODEL 1
REMARK VINA RESULT:    -8.525      0.000      0.000
REMARK INTER + INTRA:         -11.693
REMARK INTER:                 -11.017
REMARK INTRA:                  -0.677
REMARK UNBOUND:                -0.677
REMARK SMILES Cc1cc(N2CCN([C@H]3CN[C@H](C(=O)N4CCSC4)C3)CC2)n(-c2ccccc2)n1
REMARK SMILES IDX 5 1 6 2 7 3 8 4 21 5 22 6 4 7 2 8 3 9 30 10 23 11 1 12 24 13
REMARK SMILES IDX 25 14 29 15 26 16 28 17 27 18 9 19 10 20 20 21 11 22 12 23
REMARK SMILES IDX 13 25 14 26 15 27 16 28 19 29 17 30 18 31
REMARK H PARENT 11 24
ROOT
ATOM      1  N   UNL     1      42.801  35.228  15.442  1.00  0.00    -0.354 N 
ATOM      2  C   UNL     1      43.957  36.149  15.249  1.00  0.00    +0.133 C 
ATOM      3  C   UNL     1      44.374  36.860  16.558  1.00  0.00    +0.106 C 
ATOM      4  N   UNL     1      44.630  35.971  17.708  1.00  0.00    -0.296 NA
ATOM      5  C   UNL     1      43.830  34.733  17.649  1.00  0.00    +0.106 C 
ATOM      6  C   UNL     1      42.515  34.896  16.856  1.00  0.00    +0.133 C 
ENDROOT
BRANCH   1   7
ATOM      7  C   UNL     1      41.736  35.375  14.582  1.00  0.00    +0.132 A 
ATOM      8  C   UNL     1      40.016  36.142  13.397  1.00  0.00    +0.062 A 
ATOM      9  C   UNL     1      40.704  36.292  14.615  1.00  0.00    +0.072 A 
ATOM     10  N   UNL     1      40.534  35.161  12.652  1.00  0.00    -0.171 NA
ATOM     11  N   UNL     1      41.505  34.597  13.429  1.00  0.00    -0.217 N 
ATOM     12  C   UNL     1      38.861  36.933  12.899  1.00  0.00    +0.069 C 
BRANCH  11  13
ATOM     13  C   UNL     1      42.087  33.355  13.024  1.00  0.00    +0.067 A 
ATOM     14  C   UNL     1      43.124  32.752  13.748  1.00  0.00    +0.028 A 
ATOM     15  C   UNL     1      41.576  32.700  11.894  1.00  0.00    +0.028 A 
ATOM     16  C   UNL     1      43.667  31.537  13.325  1.00  0.00    +0.002 A 
ATOM     17  C   UNL     1      42.126  31.490  11.472  1.00  0.00    +0.002 A 
ATOM     18  C   UNL     1      43.175  30.910  12.184  1.00  0.00    +0.000 A 
ENDBRANCH  11  13
ENDBRANCH   1   7
BRANCH   4  19
ATOM     19  C   UNL     1      46.055  35.801  18.021  1.00  0.00    +0.072 C 
ATOM     20  C   UNL     1      46.400  34.756  19.089  1.00  0.00    +0.100 C 
ATOM     21  C   UNL     1      46.982  35.396  16.867  1.00  0.00    +0.049 C 
ATOM     22  N   UNL     1      47.855  34.662  18.992  1.00  0.00    -0.304 NA
ATOM     23  C   UNL     1      48.203  34.781  17.560  1.00  0.00    +0.145 C 
ATOM     24  H   UNL     1      48.224  33.812  19.412  1.00  0.00    +0.123 HD
BRANCH  23  25
ATOM     25  C   UNL     1      49.461  35.663  17.361  1.00  0.00    +0.240 C 
ATOM     26  O   UNL     1      50.225  35.519  16.401  1.00  0.00    -0.273 OA
BRANCH  25  27
ATOM     27  N   UNL     1      49.733  36.602  18.352  1.00  0.00    -0.331 N 
ATOM     28  C   UNL     1      50.999  36.534  19.066  1.00  0.00    +0.131 C 
ATOM     29  C   UNL     1      49.053  37.872  18.491  1.00  0.00    +0.189 C 
ATOM     30  C   UNL     1      50.889  37.375  20.326  1.00  0.00    +0.093 C 
ATOM     31  S   UNL     1      49.857  38.777  19.834  1.00  0.00    -0.139 SA
ENDBRANCH  25  27
ENDBRANCH  23  25
ENDBRANCH   4  19
TORSDOF 5
ENDMDL
MODEL 2
REMARK VINA RESULT:    -8.444      2.228      2.851
REMARK INTER + INTRA:         -11.589
REMARK INTER:                 -10.449
REMARK INTRA:                  -1.140
REMARK UNBOUND:                -0.677
REMARK SMILES Cc1cc(N2CCN([C@H]3CN[C@H](C(=O)N4CCSC4)C3)CC2)n(-c2ccccc2)n1
REMARK SMILES IDX 5 1 6 2 7 3 8 4 21 5 22 6 4 7 2 8 3 9 30 10 23 11 1 12 24 13
REMARK SMILES IDX 25 14 29 15 26 16 28 17 27 18 9 19 10 20 20 21 11 22 12 23
REMARK SMILES IDX 13 25 14 26 15 27 16 28 19 29 17 30 18 31
REMARK H PARENT 11 24
ROOT
ATOM      1  N   UNL     1      42.635  35.426  15.638  1.00  0.00    -0.354 N 
ATOM      2  C   UNL     1      43.945  35.803  15.035  1.00  0.00    +0.133 C 
ATOM      3  C   UNL     1      44.731  36.811  15.905  1.00  0.00    +0.106 C 
ATOM      4  N   UNL     1      44.925  36.416  17.314  1.00  0.00    -0.296 NA
ATOM      5  C   UNL     1      43.833  35.558  17.812  1.00  0.00    +0.106 C 
ATOM      6  C   UNL     1      42.497  35.782  17.068  1.00  0.00    +0.133 C 
ENDROOT
BRANCH   1   7
ATOM      7  C   UNL     1      41.523  35.536  14.832  1.00  0.00    +0.132 A 
ATOM      8  C   UNL     1      39.792  36.264  13.642  1.00  0.00    +0.062 A 
ATOM      9  C   UNL     1      40.582  36.544  14.771  1.00  0.00    +0.072 A 
ATOM     10  N   UNL     1      40.160  35.127  13.046  1.00  0.00    -0.171 NA
ATOM     11  N   UNL     1      41.136  34.604  13.848  1.00  0.00    -0.217 N 
ATOM     12  C   UNL     1      38.675  37.074  13.086  1.00  0.00    +0.069 C 
BRANCH  11  13
ATOM     13  C   UNL     1      41.572  33.261  13.628  1.00  0.00    +0.067 A 
ATOM     14  C   UNL     1      41.567  32.304  14.650  1.00  0.00    +0.028 A 
ATOM     15  C   UNL     1      41.975  32.877  12.340  1.00  0.00    +0.028 A 
ATOM     16  C   UNL     1      41.998  30.999  14.399  1.00  0.00    +0.002 A 
ATOM     17  C   UNL     1      42.409  31.575  12.095  1.00  0.00    +0.002 A 
ATOM     18  C   UNL     1      42.427  30.637  13.126  1.00  0.00    +0.000 A 
ENDBRANCH  11  13
ENDBRANCH   1   7
BRANCH   4  19
ATOM     19  C   UNL     1      46.288  35.963  17.621  1.00  0.00    +0.072 C 
ATOM     20  C   UNL     1      46.956  36.592  18.851  1.00  0.00    +0.100 C 
ATOM     21  C   UNL     1      46.486  34.464  17.882  1.00  0.00    +0.049 C 
ATOM     22  N   UNL     1      48.159  35.780  19.016  1.00  0.00    -0.304 NA
ATOM     23  C   UNL     1      47.793  34.387  18.679  1.00  0.00    +0.145 C 
ATOM     24  H   UNL     1      48.564  35.861  19.946  1.00  0.00    +0.123 HD
BRANCH  23  25
ATOM     25  C   UNL     1      48.910  33.699  17.855  1.00  0.00    +0.240 C 
ATOM     26  O   UNL     1      50.020  33.441  18.332  1.00  0.00    -0.273 OA
BRANCH  25  27
ATOM     27  N   UNL     1      48.629  33.428  16.519  1.00  0.00    -0.331 N 
ATOM     28  C   UNL     1      49.010  34.398  15.503  1.00  0.00    +0.131 C 
ATOM     29  C   UNL     1      48.339  32.113  15.989  1.00  0.00    +0.189 C 
ATOM     30  C   UNL     1      48.257  34.078  14.223  1.00  0.00    +0.093 C 
ATOM     31  S   UNL     1      48.181  32.270  14.195  1.00  0.00    -0.139 SA
ENDBRANCH  25  27
ENDBRANCH  23  25
ENDBRANCH   4  19
TORSDOF 5
ENDMDL
MODEL 3
REMARK VINA RESULT:    -8.390      5.234      8.699
REMARK INTER + INTRA:         -11.520
REMARK INTER:                 -10.502
REMARK INTRA:                  -1.017
REMARK UNBOUND:                -0.677
REMARK SMILES Cc1cc(N2CCN([C@H]3CN[C@H](C(=O)N4CCSC4)C3)CC2)n(-c2ccccc2)n1
REMARK SMILES IDX 5 1 6 2 7 3 8 4 21 5 22 6 4 7 2 8 3 9 30 10 23 11 1 12 24 13
REMARK SMILES IDX 25 14 29 15 26 16 28 17 27 18 9 19 10 20 20 21 11 22 12 23
REMARK SMILES IDX 13 25 14 26 15 27 16 28 19 29 17 30 18 31
REMARK H PARENT 11 24
ROOT
ATOM      1  N   UNL     1      41.194  33.318  14.029  1.00  0.00    -0.354 N 
ATOM      2  C   UNL     1      42.332  32.965  13.136  1.00  0.00    +0.133 C 
ATOM      3  C   UNL     1      43.470  32.233  13.885  1.00  0.00    +0.106 C 
ATOM      4  N   UNL     1      43.057  31.046  14.660  1.00  0.00    -0.296 NA
ATOM      5  C   UNL     1      41.669  31.150  15.147  1.00  0.00    +0.106 C 
ATOM      6  C   UNL     1      41.195  32.609  15.329  1.00  0.00    +0.133 C 
ENDROOT
BRANCH   1   7
ATOM      7  C   UNL     1      40.764  34.627  14.006  1.00  0.00    +0.132 A 
ATOM      8  C   UNL     1      39.596  36.504  13.769  1.00  0.00    +0.062 A 
ATOM      9  C   UNL     1      39.762  35.206  13.254  1.00  0.00    +0.072 A 
ATOM     10  N   UNL     1      40.466  36.766  14.749  1.00  0.00    -0.171 NA
ATOM     11  N   UNL     1      41.275  35.666  14.810  1.00  0.00    -0.217 N 
ATOM     12  C   UNL     1      38.599  37.528  13.359  1.00  0.00    +0.069 C 
BRANCH  11  13
ATOM     13  C   UNL     1      42.472  35.726  15.589  1.00  0.00    +0.067 A 
ATOM     14  C   UNL     1      42.451  35.631  16.986  1.00  0.00    +0.028 A 
ATOM     15  C   UNL     1      43.707  35.837  14.934  1.00  0.00    +0.028 A 
ATOM     16  C   UNL     1      43.641  35.690  17.716  1.00  0.00    +0.002 A 
ATOM     17  C   UNL     1      44.891  35.901  15.667  1.00  0.00    +0.002 A 
ATOM     18  C   UNL     1      44.859  35.833  17.059  1.00  0.00    +0.000 A 
ENDBRANCH  11  13
ENDBRANCH   1   7
BRANCH   4  19
ATOM     19  C   UNL     1      43.425  29.770  14.033  1.00  0.00    +0.072 C 
ATOM     20  C   UNL     1      43.579  28.567  14.971  1.00  0.00    +0.100 C 
ATOM     21  C   UNL     1      42.476  29.219  12.959  1.00  0.00    +0.049 C 
ATOM     22  N   UNL     1      43.701  27.446  14.042  1.00  0.00    -0.304 NA
ATOM     23  C   UNL     1      42.793  27.720  12.908  1.00  0.00    +0.145 C 
ATOM     24  H   UNL     1      43.514  26.547  14.482  1.00  0.00    +0.123 HD
BRANCH  23  25
ATOM     25  C   UNL     1      43.449  27.333  11.559  1.00  0.00    +0.240 C 
ATOM     26  O   UNL     1      44.578  26.837  11.491  1.00  0.00    -0.273 OA
BRANCH  25  27
ATOM     27  N   UNL     1      42.727  27.622  10.404  1.00  0.00    -0.331 N 
ATOM     28  C   UNL     1      43.226  28.639   9.491  1.00  0.00    +0.131 C 
ATOM     29  C   UNL     1      41.729  26.752   9.818  1.00  0.00    +0.189 C 
ATOM     30  C   UNL     1      42.099  29.047   8.558  1.00  0.00    +0.093 C 
ATOM     31  S   UNL     1      41.188  27.510   8.269  1.00  0.00    -0.139 SA
ENDBRANCH  25  27
ENDBRANCH  23  25
ENDBRANCH   4  19
TORSDOF 5
ENDMDL
MODEL 4
REMARK VINA RESULT:    -8.347      4.962      9.058
REMARK INTER + INTRA:         -11.464
REMARK INTER:                 -10.593
REMARK INTRA:                  -0.871
REMARK UNBOUND:                -0.677
REMARK SMILES Cc1cc(N2CCN([C@H]3CN[C@H](C(=O)N4CCSC4)C3)CC2)n(-c2ccccc2)n1
REMARK SMILES IDX 5 1 6 2 7 3 8 4 21 5 22 6 4 7 2 8 3 9 30 10 23 11 1 12 24 13
REMARK SMILES IDX 25 14 29 15 26 16 28 17 27 18 9 19 10 20 20 21 11 22 12 23
REMARK SMILES IDX 13 25 14 26 15 27 16 28 19 29 17 30 18 31
REMARK H PARENT 11 24
ROOT
ATOM      1  N   UNL     1      42.468  32.766  14.586  1.00  0.00    -0.354 N 
ATOM      2  C   UNL     1      43.483  32.310  13.595  1.00  0.00    +0.133 C 
ATOM      3  C   UNL     1      43.899  30.836  13.806  1.00  0.00    +0.106 C 
ATOM      4  N   UNL     1      42.788  29.866  13.865  1.00  0.00    -0.296 NA
ATOM      5  C   UNL     1      41.546  30.466  14.389  1.00  0.00    +0.106 C 
ATOM      6  C   UNL     1      41.801  31.669  15.324  1.00  0.00    +0.133 C 
ENDROOT
BRANCH   1   7
ATOM      7  C   UNL     1      42.739  33.933  15.266  1.00  0.00    +0.132 A 
ATOM      8  C   UNL     1      43.705  35.614  16.354  1.00  0.00    +0.062 A 
ATOM      9  C   UNL     1      43.793  34.232  16.106  1.00  0.00    +0.072 A 
ATOM     10  N   UNL     1      42.640  36.160  15.761  1.00  0.00    -0.171 NA
ATOM     11  N   UNL     1      41.967  35.111  15.201  1.00  0.00    -0.217 N 
ATOM     12  C   UNL     1      44.637  36.459  17.148  1.00  0.00    +0.069 C 
BRANCH  11  13
ATOM     13  C   UNL     1      40.645  35.320  14.700  1.00  0.00    +0.067 A 
ATOM     14  C   UNL     1      39.556  34.560  15.144  1.00  0.00    +0.028 A 
ATOM     15  C   UNL     1      40.423  36.345  13.768  1.00  0.00    +0.028 A 
ATOM     16  C   UNL     1      38.276  34.793  14.635  1.00  0.00    +0.002 A 
ATOM     17  C   UNL     1      39.145  36.570  13.259  1.00  0.00    +0.002 A 
ATOM     18  C   UNL     1      38.072  35.791  13.687  1.00  0.00    +0.000 A 
ENDBRANCH  11  13
ENDBRANCH   1   7
BRANCH   4  19
ATOM     19  C   UNL     1      42.645  29.052  12.650  1.00  0.00    +0.072 C 
ATOM     20  C   UNL     1      41.544  27.985  12.668  1.00  0.00    +0.100 C 
ATOM     21  C   UNL     1      42.347  29.796  11.341  1.00  0.00    +0.049 C 
ATOM     22  N   UNL     1      41.505  27.537  11.277  1.00  0.00    -0.304 NA
ATOM     23  C   UNL     1      41.729  28.729  10.431  1.00  0.00    +0.145 C 
ATOM     24  H   UNL     1      40.642  27.052  11.045  1.00  0.00    +0.123 HD
BRANCH  23  25
ATOM     25  C   UNL     1      42.663  28.401   9.239  1.00  0.00    +0.240 C 
ATOM     26  O   UNL     1      42.298  28.506   8.064  1.00  0.00    -0.273 OA
BRANCH  25  27
ATOM     27  N   UNL     1      43.932  27.922   9.549  1.00  0.00    -0.331 N 
ATOM     28  C   UNL     1      44.153  26.484   9.613  1.00  0.00    +0.131 C 
ATOM     29  C   UNL     1      45.152  28.694   9.444  1.00  0.00    +0.189 C 
ATOM     30  C   UNL     1      45.459  26.228  10.344  1.00  0.00    +0.093 C 
ATOM     31  S   UNL     1      46.532  27.590   9.826  1.00  0.00    -0.139 SA
ENDBRANCH  25  27
ENDBRANCH  23  25
ENDBRANCH   4  19
TORSDOF 5
ENDMDL
MODEL 5
REMARK VINA RESULT:    -8.283      2.365      3.015
REMARK INTER + INTRA:         -11.381
REMARK INTER:                 -10.429
REMARK INTRA:                  -0.953
REMARK UNBOUND:                -0.677
REMARK SMILES Cc1cc(N2CCN([C@H]3CN[C@H](C(=O)N4CCSC4)C3)CC2)n(-c2ccccc2)n1
REMARK SMILES IDX 5 1 6 2 7 3 8 4 21 5 22 6 4 7 2 8 3 9 30 10 23 11 1 12 24 13
REMARK SMILES IDX 25 14 29 15 26 16 28 17 27 18 9 19 10 20 20 21 11 22 12 23
REMARK SMILES IDX 13 25 14 26 15 27 16 28 19 29 17 30 18 31
REMARK H PARENT 11 24
ROOT
ATOM      1  N   UNL     1      42.508  35.421  15.603  1.00  0.00    -0.354 N 
ATOM      2  C   UNL     1      43.852  35.708  15.028  1.00  0.00    +0.133 C 
ATOM      3  C   UNL     1      44.645  36.741  15.861  1.00  0.00    +0.106 C 
ATOM      4  N   UNL     1      44.772  36.434  17.299  1.00  0.00    -0.296 NA
ATOM      5  C   UNL     1      43.630  35.652  17.808  1.00  0.00    +0.106 C 
ATOM      6  C   UNL     1      42.332  35.875  17.001  1.00  0.00    +0.133 C 
ENDROOT
BRANCH   1   7
ATOM      7  C   UNL     1      41.430  35.517  14.750  1.00  0.00    +0.132 A 
ATOM      8  C   UNL     1      39.749  36.226  13.479  1.00  0.00    +0.062 A 
ATOM      9  C   UNL     1      40.489  36.521  14.638  1.00  0.00    +0.072 A 
ATOM     10  N   UNL     1      40.147  35.085  12.911  1.00  0.00    -0.171 NA
ATOM     11  N   UNL     1      41.089  34.574  13.759  1.00  0.00    -0.217 N 
ATOM     12  C   UNL     1      38.654  37.026  12.869  1.00  0.00    +0.069 C 
BRANCH  11  13
ATOM     13  C   UNL     1      41.540  33.231  13.571  1.00  0.00    +0.067 A 
ATOM     14  C   UNL     1      41.979  32.765  12.325  1.00  0.00    +0.028 A 
ATOM     15  C   UNL     1      41.585  32.366  14.674  1.00  0.00    +0.028 A 
ATOM     16  C   UNL     1      42.416  31.446  12.178  1.00  0.00    +0.002 A 
ATOM     17  C   UNL     1      42.016  31.049  14.521  1.00  0.00    +0.002 A 
ATOM     18  C   UNL     1      42.426  30.586  13.272  1.00  0.00    +0.000 A 
ENDBRANCH  11  13
ENDBRANCH   1   7
BRANCH   4  19
ATOM     19  C   UNL     1      46.105  35.953  17.687  1.00  0.00    +0.072 C 
ATOM     20  C   UNL     1      46.801  36.712  18.823  1.00  0.00    +0.100 C 
ATOM     21  C   UNL     1      46.213  34.497  18.163  1.00  0.00    +0.049 C 
ATOM     22  N   UNL     1      47.954  35.864  19.120  1.00  0.00    -0.304 NA
ATOM     23  C   UNL     1      47.509  34.462  18.981  1.00  0.00    +0.145 C 
ATOM     24  H   UNL     1      48.357  36.055  20.035  1.00  0.00    +0.123 HD
BRANCH  23  25
ATOM     25  C   UNL     1      48.588  33.599  18.281  1.00  0.00    +0.240 C 
ATOM     26  O   UNL     1      49.173  33.972  17.259  1.00  0.00    -0.273 OA
BRANCH  25  27
ATOM     27  N   UNL     1      48.838  32.342  18.824  1.00  0.00    -0.331 N 
ATOM     28  C   UNL     1      48.354  32.039  20.163  1.00  0.00    +0.131 C 
ATOM     29  C   UNL     1      49.198  31.170  18.056  1.00  0.00    +0.189 C 
ATOM     30  C   UNL     1      49.080  30.805  20.671  1.00  0.00    +0.093 C 
ATOM     31  S   UNL     1      49.280  29.772  19.199  1.00  0.00    -0.139 SA
ENDBRANCH  25  27
ENDBRANCH  23  25
ENDBRANCH   4  19
TORSDOF 5
ENDMDL
MODEL 6
REMARK VINA RESULT:    -8.245      3.868      8.737
REMARK INTER + INTRA:         -11.332
REMARK INTER:                 -10.634
REMARK INTRA:                  -0.698
REMARK UNBOUND:                -0.677
REMARK SMILES Cc1cc(N2CCN([C@H]3CN[C@H](C(=O)N4CCSC4)C3)CC2)n(-c2ccccc2)n1
REMARK SMILES IDX 5 1 6 2 7 3 8 4 21 5 22 6 4 7 2 8 3 9 30 10 23 11 1 12 24 13
REMARK SMILES IDX 25 14 29 15 26 16 28 17 27 18 9 19 10 20 20 21 11 22 12 23
REMARK SMILES IDX 13 25 14 26 15 27 16 28 19 29 17 30 18 31
REMARK H PARENT 11 24
ROOT
ATOM      1  N   UNL     1      45.839  36.102  17.118  1.00  0.00    -0.354 N 
ATOM      2  C   UNL     1      45.200  35.054  17.963  1.00  0.00    +0.133 C 
ATOM      3  C   UNL     1      43.663  35.210  18.041  1.00  0.00    +0.106 C 
ATOM      4  N   UNL     1      42.968  35.296  16.742  1.00  0.00    -0.296 NA
ATOM      5  C   UNL     1      43.815  35.891  15.691  1.00  0.00    +0.106 C 
ATOM      6  C   UNL     1      44.897  36.842  16.248  1.00  0.00    +0.133 C 
ENDROOT
BRANCH   1   7
ATOM      7  C   UNL     1      46.891  36.796  17.674  1.00  0.00    +0.132 A 
ATOM      8  C   UNL     1      48.201  38.051  18.960  1.00  0.00    +0.062 A 
ATOM      9  C   UNL     1      46.870  37.871  18.539  1.00  0.00    +0.072 A 
ATOM     10  N   UNL     1      49.031  37.189  18.367  1.00  0.00    -0.171 NA
ATOM     11  N   UNL     1      48.256  36.503  17.476  1.00  0.00    -0.217 N 
ATOM     12  C   UNL     1      48.720  39.035  19.946  1.00  0.00    +0.069 C 
BRANCH  11  13
ATOM     13  C   UNL     1      48.888  35.672  16.499  1.00  0.00    +0.067 A 
ATOM     14  C   UNL     1      48.156  35.011  15.504  1.00  0.00    +0.028 A 
ATOM     15  C   UNL     1      50.285  35.549  16.509  1.00  0.00    +0.028 A 
ATOM     16  C   UNL     1      48.806  34.209  14.563  1.00  0.00    +0.002 A 
ATOM     17  C   UNL     1      50.929  34.744  15.572  1.00  0.00    +0.002 A 
ATOM     18  C   UNL     1      50.190  34.068  14.602  1.00  0.00    +0.000 A 
ENDBRANCH  11  13
ENDBRANCH   1   7
BRANCH   4  19
ATOM     19  C   UNL     1      42.250  34.069  16.371  1.00  0.00    +0.072 C 
ATOM     20  C   UNL     1      40.769  34.228  16.008  1.00  0.00    +0.100 C 
ATOM     21  C   UNL     1      42.790  33.278  15.171  1.00  0.00    +0.049 C 
ATOM     22  N   UNL     1      40.425  32.913  15.470  1.00  0.00    -0.304 NA
ATOM     23  C   UNL     1      41.596  32.437  14.704  1.00  0.00    +0.145 C 
ATOM     24  H   UNL     1      39.574  32.927  14.911  1.00  0.00    +0.123 HD
BRANCH  23  25
ATOM     25  C   UNL     1      41.847  30.928  14.947  1.00  0.00    +0.240 C 
ATOM     26  O   UNL     1      42.173  30.480  16.051  1.00  0.00    -0.273 OA
BRANCH  25  27
ATOM     27  N   UNL     1      41.743  30.088  13.841  1.00  0.00    -0.331 N 
ATOM     28  C   UNL     1      40.970  28.860  13.952  1.00  0.00    +0.131 C 
ATOM     29  C   UNL     1      42.007  30.490  12.476  1.00  0.00    +0.189 C 
ATOM     30  C   UNL     1      41.336  27.952  12.791  1.00  0.00    +0.093 C 
ATOM     31  S   UNL     1      41.602  29.088  11.408  1.00  0.00    -0.139 SA
ENDBRANCH  25  27
ENDBRANCH  23  25
ENDBRANCH   4  19
TORSDOF 5
ENDMDL
MODEL 7
REMARK VINA RESULT:    -7.902      5.831      9.072
REMARK INTER + INTRA:         -10.888
REMARK INTER:                  -9.860
REMARK INTRA:                  -1.028
REMARK UNBOUND:                -0.677
REMARK SMILES Cc1cc(N2CCN([C@H]3CN[C@H](C(=O)N4CCSC4)C3)CC2)n(-c2ccccc2)n1
REMARK SMILES IDX 5 1 6 2 7 3 8 4 21 5 22 6 4 7 2 8 3 9 30 10 23 11 1 12 24 13
REMARK SMILES IDX 25 14 29 15 26 16 28 17 27 18 9 19 10 20 20 21 11 22 12 23
REMARK SMILES IDX 13 25 14 26 15 27 16 28 19 29 17 30 18 31
REMARK H PARENT 11 24
ROOT
ATOM      1  N   UNL     1      44.844  29.027  11.869  1.00  0.00    -0.354 N 
ATOM      2  C   UNL     1      44.091  30.300  11.689  1.00  0.00    +0.133 C 
ATOM      3  C   UNL     1      42.625  30.196  12.172  1.00  0.00    +0.106 C 
ATOM      4  N   UNL     1      42.446  29.701  13.551  1.00  0.00    -0.296 NA
ATOM      5  C   UNL     1      43.527  28.786  13.963  1.00  0.00    +0.106 C 
ATOM      6  C   UNL     1      44.192  28.055  12.775  1.00  0.00    +0.133 C 
ENDROOT
BRANCH   1   7
ATOM      7  C   UNL     1      45.516  28.539  10.770  1.00  0.00    +0.132 A 
ATOM      8  C   UNL     1      47.051  27.817   9.333  1.00  0.00    +0.062 A 
ATOM      9  C   UNL     1      46.843  28.686  10.419  1.00  0.00    +0.072 A 
ATOM     10  N   UNL     1      45.927  27.192   8.972  1.00  0.00    -0.171 NA
ATOM     11  N   UNL     1      44.951  27.730   9.763  1.00  0.00    -0.217 N 
ATOM     12  C   UNL     1      48.325  27.542   8.616  1.00  0.00    +0.069 C 
BRANCH  11  13
ATOM     13  C   UNL     1      43.581  27.458   9.460  1.00  0.00    +0.067 A 
ATOM     14  C   UNL     1      42.995  26.215   9.732  1.00  0.00    +0.028 A 
ATOM     15  C   UNL     1      42.788  28.478   8.915  1.00  0.00    +0.028 A 
ATOM     16  C   UNL     1      41.652  25.984   9.425  1.00  0.00    +0.002 A 
ATOM     17  C   UNL     1      41.449  28.242   8.606  1.00  0.00    +0.002 A 
ATOM     18  C   UNL     1      40.882  26.993   8.855  1.00  0.00    +0.000 A 
ENDBRANCH  11  13
ENDBRANCH   1   7
BRANCH   4  19
ATOM     19  C   UNL     1      42.087  30.748  14.516  1.00  0.00    +0.072 C 
ATOM     20  C   UNL     1      43.184  31.176  15.499  1.00  0.00    +0.100 C 
ATOM     21  C   UNL     1      41.625  32.097  13.946  1.00  0.00    +0.049 C 
ATOM     22  N   UNL     1      42.606  32.358  16.134  1.00  0.00    -0.304 NA
ATOM     23  C   UNL     1      41.858  33.091  15.090  1.00  0.00    +0.145 C 
ATOM     24  H   UNL     1      43.304  32.940  16.592  1.00  0.00    +0.123 HD
BRANCH  23  25
ATOM     25  C   UNL     1      40.515  33.634  15.640  1.00  0.00    +0.240 C 
ATOM     26  O   UNL     1      40.015  33.220  16.691  1.00  0.00    -0.273 OA
BRANCH  25  27
ATOM     27  N   UNL     1      39.856  34.582  14.863  1.00  0.00    -0.331 N 
ATOM     28  C   UNL     1      38.407  34.689  14.951  1.00  0.00    +0.131 C 
ATOM     29  C   UNL     1      40.489  35.734  14.257  1.00  0.00    +0.189 C 
ATOM     30  C   UNL     1      37.906  35.477  13.754  1.00  0.00    +0.093 C 
ATOM     31  S   UNL     1      39.192  36.720  13.474  1.00  0.00    -0.139 SA
ENDBRANCH  25  27
ENDBRANCH  23  25
ENDBRANCH   4  19
TORSDOF 5
ENDMDL
MODEL 8
REMARK VINA RESULT:    -7.892      3.536      8.711
REMARK INTER + INTRA:         -10.875
REMARK INTER:                  -9.788
REMARK INTRA:                  -1.087
REMARK UNBOUND:                -0.677
REMARK SMILES Cc1cc(N2CCN([C@H]3CN[C@H](C(=O)N4CCSC4)C3)CC2)n(-c2ccccc2)n1
REMARK SMILES IDX 5 1 6 2 7 3 8 4 21 5 22 6 4 7 2 8 3 9 30 10 23 11 1 12 24 13
REMARK SMILES IDX 25 14 29 15 26 16 28 17 27 18 9 19 10 20 20 21 11 22 12 23
REMARK SMILES IDX 13 25 14 26 15 27 16 28 19 29 17 30 18 31
REMARK H PARENT 11 24
ROOT
ATOM      1  N   UNL     1      46.225  36.157  17.693  1.00  0.00    -0.354 N 
ATOM      2  C   UNL     1      46.259  35.860  16.233  1.00  0.00    +0.133 C 
ATOM      3  C   UNL     1      46.046  34.360  15.927  1.00  0.00    +0.106 C 
ATOM      4  N   UNL     1      44.843  33.754  16.531  1.00  0.00    -0.296 NA
ATOM      5  C   UNL     1      44.459  34.410  17.795  1.00  0.00    +0.106 C 
ATOM      6  C   UNL     1      45.651  35.073  18.522  1.00  0.00    +0.133 C 
ENDROOT
BRANCH   1   7
ATOM      7  C   UNL     1      47.279  36.878  18.208  1.00  0.00    +0.132 A 
ATOM      8  C   UNL     1      48.567  38.315  19.313  1.00  0.00    +0.062 A 
ATOM      9  C   UNL     1      47.290  38.148  18.748  1.00  0.00    +0.072 A 
ATOM     10  N   UNL     1      49.345  37.248  19.108  1.00  0.00    -0.171 NA
ATOM     11  N   UNL     1      48.607  36.416  18.314  1.00  0.00    -0.217 N 
ATOM     12  C   UNL     1      49.081  39.482  20.078  1.00  0.00    +0.069 C 
BRANCH  11  13
ATOM     13  C   UNL     1      49.243  35.291  17.703  1.00  0.00    +0.067 A 
ATOM     14  C   UNL     1      49.189  34.012  18.270  1.00  0.00    +0.028 A 
ATOM     15  C   UNL     1      49.904  35.465  16.478  1.00  0.00    +0.028 A 
ATOM     16  C   UNL     1      49.821  32.934  17.644  1.00  0.00    +0.002 A 
ATOM     17  C   UNL     1      50.537  34.388  15.860  1.00  0.00    +0.002 A 
ATOM     18  C   UNL     1      50.501  33.123  16.444  1.00  0.00    +0.000 A 
ENDBRANCH  11  13
ENDBRANCH   1   7
BRANCH   4  19
ATOM     19  C   UNL     1      43.754  33.515  15.574  1.00  0.00    +0.072 C 
ATOM     20  C   UNL     1      42.995  32.191  15.720  1.00  0.00    +0.100 C 
ATOM     21  C   UNL     1      42.610  34.538  15.547  1.00  0.00    +0.049 C 
ATOM     22  N   UNL     1      41.863  32.366  14.812  1.00  0.00    -0.304 NA
ATOM     23  C   UNL     1      41.438  33.778  14.915  1.00  0.00    +0.145 C 
ATOM     24  H   UNL     1      41.103  31.716  15.002  1.00  0.00    +0.123 HD
BRANCH  23  25
ATOM     25  C   UNL     1      41.082  34.357  13.523  1.00  0.00    +0.240 C 
ATOM     26  O   UNL     1      41.782  34.160  12.525  1.00  0.00    -0.273 OA
BRANCH  25  27
ATOM     27  N   UNL     1      39.953  35.168  13.450  1.00  0.00    -0.331 N 
ATOM     28  C   UNL     1      38.857  34.945  14.381  1.00  0.00    +0.131 C 
ATOM     29  C   UNL     1      39.908  36.459  12.796  1.00  0.00    +0.189 C 
ATOM     30  C   UNL     1      37.622  35.655  13.853  1.00  0.00    +0.093 C 
ATOM     31  S   UNL     1      38.271  37.165  13.096  1.00  0.00    -0.139 SA
ENDBRANCH  25  27
ENDBRANCH  23  25
ENDBRANCH   4  19
TORSDOF 5
ENDMDL
MODEL 9
REMARK VINA RESULT:    -7.874      6.791      9.491
REMARK INTER + INTRA:         -10.852
REMARK INTER:                  -9.891
REMARK INTRA:                  -0.961
REMARK UNBOUND:                -0.677
REMARK SMILES Cc1cc(N2CCN([C@H]3CN[C@H](C(=O)N4CCSC4)C3)CC2)n(-c2ccccc2)n1
REMARK SMILES IDX 5 1 6 2 7 3 8 4 21 5 22 6 4 7 2 8 3 9 30 10 23 11 1 12 24 13
REMARK SMILES IDX 25 14 29 15 26 16 28 17 27 18 9 19 10 20 20 21 11 22 12 23
REMARK SMILES IDX 13 25 14 26 15 27 16 28 19 29 17 30 18 31
REMARK H PARENT 11 24
ROOT
ATOM      1  N   UNL     1      42.024  28.235  13.722  1.00  0.00    -0.354 N 
ATOM      2  C   UNL     1      40.982  28.771  14.642  1.00  0.00    +0.133 C 
ATOM      3  C   UNL     1      40.131  27.654  15.290  1.00  0.00    +0.106 C 
ATOM      4  N   UNL     1      40.895  26.588  15.968  1.00  0.00    -0.296 NA
ATOM      5  C   UNL     1      42.225  26.380  15.364  1.00  0.00    +0.106 C 
ATOM      6  C   UNL     1      42.286  26.786  13.874  1.00  0.00    +0.133 C 
ENDROOT
BRANCH   1   7
ATOM      7  C   UNL     1      42.074  28.773  12.455  1.00  0.00    +0.132 A 
ATOM      8  C   UNL     1      41.833  29.193  10.284  1.00  0.00    +0.062 A 
ATOM      9  C   UNL     1      41.886  28.157  11.234  1.00  0.00    +0.072 A 
ATOM     10  N   UNL     1      42.026  30.391  10.844  1.00  0.00    -0.171 NA
ATOM     11  N   UNL     1      42.308  30.131  12.155  1.00  0.00    -0.217 N 
ATOM     12  C   UNL     1      41.581  29.079   8.824  1.00  0.00    +0.069 C 
BRANCH  11  13
ATOM     13  C   UNL     1      42.812  31.184  12.981  1.00  0.00    +0.067 A 
ATOM     14  C   UNL     1      44.033  31.074  13.658  1.00  0.00    +0.028 A 
ATOM     15  C   UNL     1      42.084  32.378  13.081  1.00  0.00    +0.028 A 
ATOM     16  C   UNL     1      44.496  32.124  14.455  1.00  0.00    +0.002 A 
ATOM     17  C   UNL     1      42.547  33.421  13.882  1.00  0.00    +0.002 A 
ATOM     18  C   UNL     1      43.750  33.293  14.574  1.00  0.00    +0.000 A 
ENDBRANCH  11  13
ENDBRANCH   1   7
BRANCH   4  19
ATOM     19  C   UNL     1      40.862  26.674  17.434  1.00  0.00    +0.072 C 
ATOM     20  C   UNL     1      42.218  26.708  18.147  1.00  0.00    +0.100 C 
ATOM     21  C   UNL     1      40.147  27.886  18.048  1.00  0.00    +0.049 C 
ATOM     22  N   UNL     1      41.852  27.031  19.525  1.00  0.00    -0.304 NA
ATOM     23  C   UNL     1      40.731  27.993  19.461  1.00  0.00    +0.145 C 
ATOM     24  H   UNL     1      42.637  27.384  20.068  1.00  0.00    +0.123 HD
BRANCH  23  25
ATOM     25  C   UNL     1      39.660  27.675  20.534  1.00  0.00    +0.240 C 
ATOM     26  O   UNL     1      39.129  26.564  20.630  1.00  0.00    -0.273 OA
BRANCH  25  27
ATOM     27  N   UNL     1      39.272  28.723  21.364  1.00  0.00    -0.331 N 
ATOM     28  C   UNL     1      39.085  28.471  22.786  1.00  0.00    +0.131 C 
ATOM     29  C   UNL     1      39.401  30.126  21.034  1.00  0.00    +0.189 C 
ATOM     30  C   UNL     1      38.294  29.622  23.381  1.00  0.00    +0.093 C 
ATOM     31  S   UNL     1      38.887  31.077  22.483  1.00  0.00    -0.139 SA
ENDBRANCH  25  27
ENDBRANCH  23  25
ENDBRANCH   4  19
TORSDOF 5
ENDMDL
