MODEL 1
REMARK VINA RESULT:    -8.415      0.000      0.000
REMARK INTER + INTRA:         -11.927
REMARK INTER:                 -10.875
REMARK INTRA:                  -1.052
REMARK UNBOUND:                -1.052
REMARK SMILES Cc1cc(N2CCN([C@@H]3CN[C@H](C(=O)N4CCSC4)C3)CC2)n(-c2ccccc2)n1
REMARK SMILES IDX 5 1 6 2 7 3 8 4 21 5 22 6 4 7 2 8 3 9 30 10 23 11 1 12 24 13
REMARK SMILES IDX 25 14 29 15 26 16 28 17 27 18 9 19 10 20 20 21 11 22 12 23
REMARK SMILES IDX 13 25 14 26 15 27 16 28 19 29 17 30 18 31
REMARK H PARENT 11 24
ROOT
ATOM      1  N   UNL     1      39.242  49.917  36.946  1.00  0.00    -0.354 N 
ATOM      2  C   UNL     1      40.362  49.242  36.231  1.00  0.00    +0.133 C 
ATOM      3  C   UNL     1      41.595  50.166  36.130  1.00  0.00    +0.106 C 
ATOM      4  N   UNL     1      41.350  51.406  35.352  1.00  0.00    -0.296 NA
ATOM      5  C   UNL     1      39.942  51.843  35.495  1.00  0.00    +0.106 C 
ATOM      6  C   UNL     1      39.247  51.391  36.799  1.00  0.00    +0.133 C 
ENDROOT
BRANCH   1   7
ATOM      7  C   UNL     1      38.037  49.254  36.878  1.00  0.00    +0.132 A 
ATOM      8  C   UNL     1      36.222  48.142  36.235  1.00  0.00    +0.062 A 
ATOM      9  C   UNL     1      37.222  49.024  35.789  1.00  0.00    +0.072 A 
ATOM     10  N   UNL     1      36.366  47.839  37.525  1.00  0.00    -0.171 NA
ATOM     11  N   UNL     1      37.411  48.607  37.960  1.00  0.00    -0.217 N 
ATOM     12  C   UNL     1      35.122  47.537  35.447  1.00  0.00    +0.069 C 
BRANCH  11  13
ATOM     13  C   UNL     1      37.685  48.677  39.361  1.00  0.00    +0.067 A 
ATOM     14  C   UNL     1      38.805  49.350  39.863  1.00  0.00    +0.028 A 
ATOM     15  C   UNL     1      36.781  48.094  40.266  1.00  0.00    +0.028 A 
ATOM     16  C   UNL     1      39.033  49.412  41.242  1.00  0.00    +0.002 A 
ATOM     17  C   UNL     1      37.014  48.156  41.642  1.00  0.00    +0.002 A 
ATOM     18  C   UNL     1      38.142  48.812  42.129  1.00  0.00    +0.000 A 
ENDBRANCH  11  13
ENDBRANCH   1   7
BRANCH   4  19
ATOM     19  C   UNL     1      42.331  52.457  35.662  1.00  0.00    +0.072 C 
ATOM     20  C   UNL     1      43.771  52.207  35.185  1.00  0.00    +0.100 C 
ATOM     21  C   UNL     1      42.546  52.666  37.169  1.00  0.00    +0.049 C 
ATOM     22  N   UNL     1      44.566  53.179  35.950  1.00  0.00    -0.304 NA
ATOM     23  C   UNL     1      43.997  53.133  37.318  1.00  0.00    +0.145 C 
ATOM     24  H   UNL     1      44.405  54.108  35.558  1.00  0.00    +0.123 HD
BRANCH  23  25
ATOM     25  C   UNL     1      44.794  52.158  38.229  1.00  0.00    +0.240 C 
ATOM     26  O   UNL     1      46.019  52.029  38.157  1.00  0.00    -0.273 OA
BRANCH  25  27
ATOM     27  N   UNL     1      44.051  51.379  39.106  1.00  0.00    -0.331 N 
ATOM     28  C   UNL     1      43.993  49.939  38.907  1.00  0.00    +0.131 C 
ATOM     29  C   UNL     1      43.652  51.794  40.433  1.00  0.00    +0.189 C 
ATOM     30  C   UNL     1      42.807  49.401  39.684  1.00  0.00    +0.093 C 
ATOM     31  S   UNL     1      42.769  50.409  41.187  1.00  0.00    -0.139 SA
ENDBRANCH  25  27
ENDBRANCH  23  25
ENDBRANCH   4  19
TORSDOF 5
ENDMDL
MODEL 2
REMARK VINA RESULT:    -8.258      4.715      8.061
REMARK INTER + INTRA:         -11.724
REMARK INTER:                 -10.800
REMARK INTRA:                  -0.924
REMARK UNBOUND:                -1.052
REMARK SMILES Cc1cc(N2CCN([C@@H]3CN[C@H](C(=O)N4CCSC4)C3)CC2)n(-c2ccccc2)n1
REMARK SMILES IDX 5 1 6 2 7 3 8 4 21 5 22 6 4 7 2 8 3 9 30 10 23 11 1 12 24 13
REMARK SMILES IDX 25 14 29 15 26 16 28 17 27 18 9 19 10 20 20 21 11 22 12 23
REMARK SMILES IDX 13 25 14 26 15 27 16 28 19 29 17 30 18 31
REMARK H PARENT 11 24
ROOT
ATOM      1  N   UNL     1      37.712  49.547  38.802  1.00  0.00    -0.354 N 
ATOM      2  C   UNL     1      37.056  50.823  39.206  1.00  0.00    +0.133 C 
ATOM      3  C   UNL     1      37.374  51.169  40.677  1.00  0.00    +0.106 C 
ATOM      4  N   UNL     1      36.870  50.168  41.649  1.00  0.00    -0.296 NA
ATOM      5  C   UNL     1      36.874  48.812  41.051  1.00  0.00    +0.106 C 
ATOM      6  C   UNL     1      37.908  48.599  39.923  1.00  0.00    +0.133 C 
ENDROOT
BRANCH   1   7
ATOM      7  C   UNL     1      37.297  49.050  37.586  1.00  0.00    +0.132 A 
ATOM      8  C   UNL     1      36.155  48.166  35.896  1.00  0.00    +0.062 A 
ATOM      9  C   UNL     1      36.254  48.194  37.298  1.00  0.00    +0.072 A 
ATOM     10  N   UNL     1      37.079  48.931  35.316  1.00  0.00    -0.171 NA
ATOM     11  N   UNL     1      37.860  49.389  36.341  1.00  0.00    -0.217 N 
ATOM     12  C   UNL     1      35.165  47.439  35.066  1.00  0.00    +0.069 C 
BRANCH  11  13
ATOM     13  C   UNL     1      39.080  50.070  36.035  1.00  0.00    +0.067 A 
ATOM     14  C   UNL     1      39.093  51.385  35.554  1.00  0.00    +0.028 A 
ATOM     15  C   UNL     1      40.304  49.419  36.266  1.00  0.00    +0.028 A 
ATOM     16  C   UNL     1      40.306  52.025  35.280  1.00  0.00    +0.002 A 
ATOM     17  C   UNL     1      41.513  50.061  35.988  1.00  0.00    +0.002 A 
ATOM     18  C   UNL     1      41.513  51.362  35.492  1.00  0.00    +0.000 A 
ENDBRANCH  11  13
ENDBRANCH   1   7
BRANCH   4  19
ATOM     19  C   UNL     1      37.568  50.248  42.941  1.00  0.00    +0.072 C 
ATOM     20  C   UNL     1      38.318  48.984  43.390  1.00  0.00    +0.100 C 
ATOM     21  C   UNL     1      36.624  50.476  44.131  1.00  0.00    +0.049 C 
ATOM     22  N   UNL     1      38.563  49.213  44.822  1.00  0.00    -0.304 NA
ATOM     23  C   UNL     1      37.297  49.796  45.328  1.00  0.00    +0.145 C 
ATOM     24  H   UNL     1      39.305  49.907  44.917  1.00  0.00    +0.123 HD
BRANCH  23  25
ATOM     25  C   UNL     1      36.370  48.702  45.927  1.00  0.00    +0.240 C 
ATOM     26  O   UNL     1      35.625  48.006  45.234  1.00  0.00    -0.273 OA
BRANCH  25  27
ATOM     27  N   UNL     1      36.372  48.576  47.311  1.00  0.00    -0.331 N 
ATOM     28  C   UNL     1      37.181  49.485  48.109  1.00  0.00    +0.131 C 
ATOM     29  C   UNL     1      35.347  47.896  48.072  1.00  0.00    +0.189 C 
ATOM     30  C   UNL     1      37.358  48.874  49.486  1.00  0.00    +0.093 C 
ATOM     31  S   UNL     1      35.772  48.068  49.820  1.00  0.00    -0.139 SA
ENDBRANCH  25  27
ENDBRANCH  23  25
ENDBRANCH   4  19
TORSDOF 5
ENDMDL
MODEL 3
REMARK VINA RESULT:    -8.004      2.070      4.505
REMARK INTER + INTRA:         -11.395
REMARK INTER:                  -9.968
REMARK INTRA:                  -1.428
REMARK UNBOUND:                -1.052
REMARK SMILES Cc1cc(N2CCN([C@@H]3CN[C@H](C(=O)N4CCSC4)C3)CC2)n(-c2ccccc2)n1
REMARK SMILES IDX 5 1 6 2 7 3 8 4 21 5 22 6 4 7 2 8 3 9 30 10 23 11 1 12 24 13
REMARK SMILES IDX 25 14 29 15 26 16 28 17 27 18 9 19 10 20 20 21 11 22 12 23
REMARK SMILES IDX 13 25 14 26 15 27 16 28 19 29 17 30 18 31
REMARK H PARENT 11 24
ROOT
ATOM      1  N   UNL     1      40.213  50.448  39.661  1.00  0.00    -0.354 N 
ATOM      2  C   UNL     1      40.135  51.916  39.907  1.00  0.00    +0.133 C 
ATOM      3  C   UNL     1      41.329  52.653  39.262  1.00  0.00    +0.106 C 
ATOM      4  N   UNL     1      42.646  52.252  39.814  1.00  0.00    -0.296 NA
ATOM      5  C   UNL     1      42.624  50.834  40.243  1.00  0.00    +0.106 C 
ATOM      6  C   UNL     1      41.598  49.946  39.505  1.00  0.00    +0.133 C 
ENDROOT
BRANCH   1   7
ATOM      7  C   UNL     1      39.319  49.696  40.390  1.00  0.00    +0.132 A 
ATOM      8  C   UNL     1      38.114  48.738  41.994  1.00  0.00    +0.062 A 
ATOM      9  C   UNL     1      39.357  49.336  41.721  1.00  0.00    +0.072 A 
ATOM     10  N   UNL     1      37.335  48.695  40.914  1.00  0.00    -0.171 NA
ATOM     11  N   UNL     1      38.108  49.177  39.894  1.00  0.00    -0.217 N 
ATOM     12  C   UNL     1      37.617  48.218  43.290  1.00  0.00    +0.069 C 
BRANCH  11  13
ATOM     13  C   UNL     1      37.636  49.062  38.550  1.00  0.00    +0.067 A 
ATOM     14  C   UNL     1      37.662  47.846  37.858  1.00  0.00    +0.028 A 
ATOM     15  C   UNL     1      37.086  50.191  37.918  1.00  0.00    +0.028 A 
ATOM     16  C   UNL     1      37.176  47.767  36.548  1.00  0.00    +0.002 A 
ATOM     17  C   UNL     1      36.605  50.108  36.609  1.00  0.00    +0.002 A 
ATOM     18  C   UNL     1      36.654  48.897  35.924  1.00  0.00    +0.000 A 
ENDBRANCH  11  13
ENDBRANCH   1   7
BRANCH   4  19
ATOM     19  C   UNL     1      43.752  52.579  38.901  1.00  0.00    +0.072 C 
ATOM     20  C   UNL     1      43.676  53.945  38.201  1.00  0.00    +0.100 C 
ATOM     21  C   UNL     1      43.850  51.630  37.697  1.00  0.00    +0.049 C 
ATOM     22  N   UNL     1      44.648  53.830  37.104  1.00  0.00    -0.304 NA
ATOM     23  C   UNL     1      44.432  52.469  36.556  1.00  0.00    +0.145 C 
ATOM     24  H   UNL     1      45.588  53.880  37.497  1.00  0.00    +0.123 HD
BRANCH  23  25
ATOM     25  C   UNL     1      43.460  52.495  35.344  1.00  0.00    +0.240 C 
ATOM     26  O   UNL     1      43.718  53.087  34.294  1.00  0.00    -0.273 OA
BRANCH  25  27
ATOM     27  N   UNL     1      42.236  51.858  35.515  1.00  0.00    -0.331 N 
ATOM     28  C   UNL     1      41.017  52.652  35.537  1.00  0.00    +0.131 C 
ATOM     29  C   UNL     1      42.005  50.452  35.273  1.00  0.00    +0.189 C 
ATOM     30  C   UNL     1      39.919  51.814  36.165  1.00  0.00    +0.093 C 
ATOM     31  S   UNL     1      40.251  50.135  35.572  1.00  0.00    -0.139 SA
ENDBRANCH  25  27
ENDBRANCH  23  25
ENDBRANCH   4  19
TORSDOF 5
ENDMDL
MODEL 4
REMARK VINA RESULT:    -7.119      6.119      9.280
REMARK INTER + INTRA:         -10.253
REMARK INTER:                  -9.324
REMARK INTRA:                  -0.928
REMARK UNBOUND:                -1.052
REMARK SMILES Cc1cc(N2CCN([C@@H]3CN[C@H](C(=O)N4CCSC4)C3)CC2)n(-c2ccccc2)n1
REMARK SMILES IDX 5 1 6 2 7 3 8 4 21 5 22 6 4 7 2 8 3 9 30 10 23 11 1 12 24 13
REMARK SMILES IDX 25 14 29 15 26 16 28 17 27 18 9 19 10 20 20 21 11 22 12 23
REMARK SMILES IDX 13 25 14 26 15 27 16 28 19 29 17 30 18 31
REMARK H PARENT 11 24
ROOT
ATOM      1  N   UNL     1      36.598  51.877  45.500  1.00  0.00    -0.354 N 
ATOM      2  C   UNL     1      37.740  51.155  46.128  1.00  0.00    +0.133 C 
ATOM      3  C   UNL     1      38.520  50.330  45.081  1.00  0.00    +0.106 C 
ATOM      4  N   UNL     1      37.713  49.263  44.440  1.00  0.00    -0.296 NA
ATOM      5  C   UNL     1      36.290  49.667  44.349  1.00  0.00    +0.106 C 
ATOM      6  C   UNL     1      36.047  51.192  44.307  1.00  0.00    +0.133 C 
ENDROOT
BRANCH   1   7
ATOM      7  C   UNL     1      35.720  52.448  46.394  1.00  0.00    +0.132 A 
ATOM      8  C   UNL     1      34.273  53.765  47.451  1.00  0.00    +0.062 A 
ATOM      9  C   UNL     1      35.314  53.762  46.506  1.00  0.00    +0.072 A 
ATOM     10  N   UNL     1      34.035  52.545  47.931  1.00  0.00    -0.171 NA
ATOM     11  N   UNL     1      34.995  51.745  47.374  1.00  0.00    -0.217 N 
ATOM     12  C   UNL     1      33.454  54.915  47.903  1.00  0.00    +0.069 C 
BRANCH  11  13
ATOM     13  C   UNL     1      35.150  50.408  47.855  1.00  0.00    +0.067 A 
ATOM     14  C   UNL     1      35.907  50.115  48.996  1.00  0.00    +0.028 A 
ATOM     15  C   UNL     1      34.488  49.361  47.192  1.00  0.00    +0.028 A 
ATOM     16  C   UNL     1      36.025  48.796  49.446  1.00  0.00    +0.002 A 
ATOM     17  C   UNL     1      34.611  48.045  47.644  1.00  0.00    +0.002 A 
ATOM     18  C   UNL     1      35.382  47.763  48.769  1.00  0.00    +0.000 A 
ENDBRANCH  11  13
ENDBRANCH   1   7
BRANCH   4  19
ATOM     19  C   UNL     1      38.288  48.826  43.158  1.00  0.00    +0.072 C 
ATOM     20  C   UNL     1      39.199  49.836  42.442  1.00  0.00    +0.100 C 
ATOM     21  C   UNL     1      37.232  48.555  42.076  1.00  0.00    +0.049 C 
ATOM     22  N   UNL     1      39.293  49.311  41.072  1.00  0.00    -0.304 NA
ATOM     23  C   UNL     1      37.914  48.876  40.743  1.00  0.00    +0.145 C 
ATOM     24  H   UNL     1      39.902  48.492  41.080  1.00  0.00    +0.123 HD
BRANCH  23  25
ATOM     25  C   UNL     1      37.137  49.988  39.985  1.00  0.00    +0.240 C 
ATOM     26  O   UNL     1      36.391  50.788  40.555  1.00  0.00    -0.273 OA
BRANCH  25  27
ATOM     27  N   UNL     1      37.273  50.010  38.603  1.00  0.00    -0.331 N 
ATOM     28  C   UNL     1      37.960  51.126  37.971  1.00  0.00    +0.131 C 
ATOM     29  C   UNL     1      37.158  48.847  37.751  1.00  0.00    +0.189 C 
ATOM     30  C   UNL     1      37.589  51.139  36.501  1.00  0.00    +0.093 C 
ATOM     31  S   UNL     1      37.482  49.387  36.056  1.00  0.00    -0.139 SA
ENDBRANCH  25  27
ENDBRANCH  23  25
ENDBRANCH   4  19
TORSDOF 5
ENDMDL
MODEL 5
REMARK VINA RESULT:    -6.505      6.939     10.070
REMARK INTER + INTRA:          -9.459
REMARK INTER:                  -8.183
REMARK INTRA:                  -1.276
REMARK UNBOUND:                -1.052
REMARK SMILES Cc1cc(N2CCN([C@@H]3CN[C@H](C(=O)N4CCSC4)C3)CC2)n(-c2ccccc2)n1
REMARK SMILES IDX 5 1 6 2 7 3 8 4 21 5 22 6 4 7 2 8 3 9 30 10 23 11 1 12 24 13
REMARK SMILES IDX 25 14 29 15 26 16 28 17 27 18 9 19 10 20 20 21 11 22 12 23
REMARK SMILES IDX 13 25 14 26 15 27 16 28 19 29 17 30 18 31
REMARK H PARENT 11 24
ROOT
ATOM      1  N   UNL     1      39.414  49.152  48.277  1.00  0.00    -0.354 N 
ATOM      2  C   UNL     1      40.200  50.186  49.008  1.00  0.00    +0.133 C 
ATOM      3  C   UNL     1      41.632  50.298  48.443  1.00  0.00    +0.106 C 
ATOM      4  N   UNL     1      42.430  49.055  48.584  1.00  0.00    -0.296 NA
ATOM      5  C   UNL     1      41.554  47.862  48.512  1.00  0.00    +0.106 C 
ATOM      6  C   UNL     1      40.244  48.061  47.717  1.00  0.00    +0.133 C 
ENDROOT
BRANCH   1   7
ATOM      7  C   UNL     1      38.210  48.828  48.862  1.00  0.00    +0.132 A 
ATOM      8  C   UNL     1      36.509  48.510  50.258  1.00  0.00    +0.062 A 
ATOM      9  C   UNL     1      37.909  48.619  50.192  1.00  0.00    +0.072 A 
ATOM     10  N   UNL     1      35.944  48.619  49.056  1.00  0.00    -0.171 NA
ATOM     11  N   UNL     1      36.988  48.700  48.175  1.00  0.00    -0.217 N 
ATOM     12  C   UNL     1      35.664  48.329  51.462  1.00  0.00    +0.069 C 
BRANCH  11  13
ATOM     13  C   UNL     1      36.722  48.610  46.773  1.00  0.00    +0.067 A 
ATOM     14  C   UNL     1      37.015  47.456  46.038  1.00  0.00    +0.028 A 
ATOM     15  C   UNL     1      36.108  49.694  46.122  1.00  0.00    +0.028 A 
ATOM     16  C   UNL     1      36.727  47.397  44.670  1.00  0.00    +0.002 A 
ATOM     17  C   UNL     1      35.825  49.632  44.755  1.00  0.00    +0.002 A 
ATOM     18  C   UNL     1      36.138  48.485  44.030  1.00  0.00    +0.000 A 
ENDBRANCH  11  13
ENDBRANCH   1   7
BRANCH   4  19
ATOM     19  C   UNL     1      43.565  49.015  47.649  1.00  0.00    +0.072 C 
ATOM     20  C   UNL     1      43.429  49.867  46.377  1.00  0.00    +0.100 C 
ATOM     21  C   UNL     1      43.815  47.622  47.052  1.00  0.00    +0.049 C 
ATOM     22  N   UNL     1      44.477  49.340  45.490  1.00  0.00    -0.304 NA
ATOM     23  C   UNL     1      44.404  47.868  45.660  1.00  0.00    +0.145 C 
ATOM     24  H   UNL     1      45.383  49.665  45.830  1.00  0.00    +0.123 HD
BRANCH  23  25
ATOM     25  C   UNL     1      43.514  47.216  44.566  1.00  0.00    +0.240 C 
ATOM     26  O   UNL     1      42.486  46.589  44.829  1.00  0.00    -0.273 OA
BRANCH  25  27
ATOM     27  N   UNL     1      43.963  47.322  43.255  1.00  0.00    -0.331 N 
ATOM     28  C   UNL     1      43.399  48.345  42.388  1.00  0.00    +0.131 C 
ATOM     29  C   UNL     1      45.216  46.784  42.774  1.00  0.00    +0.189 C 
ATOM     30  C   UNL     1      43.709  47.971  40.952  1.00  0.00    +0.093 C 
ATOM     31  S   UNL     1      45.364  47.241  41.031  1.00  0.00    -0.139 SA
ENDBRANCH  25  27
ENDBRANCH  23  25
ENDBRANCH   4  19
TORSDOF 5
ENDMDL
