MODEL 1
REMARK VINA RESULT:    -8.230      0.000      0.000
REMARK INTER + INTRA:          -8.933
REMARK INTER:                  -8.711
REMARK INTRA:                  -0.222
REMARK UNBOUND:                -0.222
REMARK SMILES O=c1cc(-c2ccccc2)oc2ccccc12
REMARK SMILES IDX 1 1 2 2 3 3 4 4 11 5 12 6 13 7 14 8 15 9 16 10 17 11 5 12
REMARK SMILES IDX 6 13 10 14 7 15 9 16 8 17
REMARK H PARENT
ROOT
ATOM      1  O   UNL     1      39.417  33.227  16.338  1.00  0.00    -0.289 OA
ATOM      2  C   UNL     1      40.059  34.097  15.761  1.00  0.00    +0.193 C 
ATOM      3  C   UNL     1      41.492  34.290  16.038  1.00  0.00    +0.100 C 
ATOM      4  C   UNL     1      42.179  35.248  15.395  1.00  0.00    +0.138 C 
ATOM      5  O   UNL     1      41.592  36.093  14.455  1.00  0.00    -0.456 OA
ATOM      6  C   UNL     1      40.260  35.950  14.165  1.00  0.00    +0.138 A 
ATOM      7  C   UNL     1      39.717  36.818  13.218  1.00  0.00    +0.048 A 
ATOM      8  C   UNL     1      38.365  36.721  12.881  1.00  0.00    +0.004 A 
ATOM      9  C   UNL     1      37.557  35.759  13.490  1.00  0.00    +0.001 A 
ATOM     10  C   UNL     1      38.100  34.890  14.437  1.00  0.00    +0.016 A 
ATOM     11  C   UNL     1      39.454  34.992  14.769  1.00  0.00    +0.065 A 
ENDROOT
BRANCH   4  12
ATOM     12  C   UNL     1      43.632  35.509  15.616  1.00  0.00    +0.017 A 
ATOM     13  C   UNL     1      44.647  34.817  14.931  1.00  0.00    +0.012 A 
ATOM     14  C   UNL     1      44.038  36.485  16.546  1.00  0.00    +0.012 A 
ATOM     15  C   UNL     1      46.000  35.087  15.164  1.00  0.00    +0.001 A 
ATOM     16  C   UNL     1      45.391  36.757  16.780  1.00  0.00    +0.001 A 
ATOM     17  C   UNL     1      46.373  36.057  16.088  1.00  0.00    +0.000 A 
ENDBRANCH   4  12
TORSDOF 1
ENDMDL
MODEL 2
REMARK VINA RESULT:    -7.024      3.561      5.514
REMARK INTER + INTRA:          -7.657
REMARK INTER:                  -7.422
REMARK INTRA:                  -0.235
REMARK UNBOUND:                -0.222
REMARK SMILES O=c1cc(-c2ccccc2)oc2ccccc12
REMARK SMILES IDX 1 1 2 2 3 3 4 4 11 5 12 6 13 7 14 8 15 9 16 10 17 11 5 12
REMARK SMILES IDX 6 13 10 14 7 15 9 16 8 17
REMARK H PARENT
ROOT
ATOM      1  O   UNL     1      40.665  33.786  16.564  1.00  0.00    -0.289 OA
ATOM      2  C   UNL     1      41.602  33.773  15.775  1.00  0.00    +0.193 C 
ATOM      3  C   UNL     1      41.668  32.774  14.694  1.00  0.00    +0.100 C 
ATOM      4  C   UNL     1      42.703  32.777  13.838  1.00  0.00    +0.138 C 
ATOM      5  O   UNL     1      43.746  33.697  13.920  1.00  0.00    -0.456 OA
ATOM      6  C   UNL     1      43.726  34.645  14.910  1.00  0.00    +0.138 A 
ATOM      7  C   UNL     1      44.791  35.546  14.953  1.00  0.00    +0.048 A 
ATOM      8  C   UNL     1      44.827  36.534  15.939  1.00  0.00    +0.004 A 
ATOM      9  C   UNL     1      43.800  36.623  16.881  1.00  0.00    +0.001 A 
ATOM     10  C   UNL     1      42.735  35.723  16.839  1.00  0.00    +0.016 A 
ATOM     11  C   UNL     1      42.705  34.737  15.849  1.00  0.00    +0.065 A 
ENDROOT
BRANCH   4  12
ATOM     12  C   UNL     1      42.847  31.802  12.718  1.00  0.00    +0.017 A 
ATOM     13  C   UNL     1      41.924  31.711  11.660  1.00  0.00    +0.012 A 
ATOM     14  C   UNL     1      43.944  30.920  12.688  1.00  0.00    +0.012 A 
ATOM     15  C   UNL     1      42.090  30.783  10.624  1.00  0.00    +0.001 A 
ATOM     16  C   UNL     1      44.111  29.993  11.653  1.00  0.00    +0.001 A 
ATOM     17  C   UNL     1      43.183  29.925  10.620  1.00  0.00    +0.000 A 
ENDBRANCH   4  12
TORSDOF 1
ENDMDL
MODEL 3
REMARK VINA RESULT:    -6.855      1.902      3.374
REMARK INTER + INTRA:          -7.478
REMARK INTER:                  -7.248
REMARK INTRA:                  -0.230
REMARK UNBOUND:                -0.222
REMARK SMILES O=c1cc(-c2ccccc2)oc2ccccc12
REMARK SMILES IDX 1 1 2 2 3 3 4 4 11 5 12 6 13 7 14 8 15 9 16 10 17 11 5 12
REMARK SMILES IDX 6 13 10 14 7 15 9 16 8 17
REMARK H PARENT
ROOT
ATOM      1  O   UNL     1      42.421  35.990  12.622  1.00  0.00    -0.289 OA
ATOM      2  C   UNL     1      42.669  35.767  13.801  1.00  0.00    +0.193 C 
ATOM      3  C   UNL     1      43.971  36.132  14.384  1.00  0.00    +0.100 C 
ATOM      4  C   UNL     1      44.224  35.880  15.678  1.00  0.00    +0.138 C 
ATOM      5  O   UNL     1      43.295  35.274  16.522  1.00  0.00    -0.456 OA
ATOM      6  C   UNL     1      42.070  34.916  16.023  1.00  0.00    +0.138 A 
ATOM      7  C   UNL     1      41.173  34.313  16.906  1.00  0.00    +0.048 A 
ATOM      8  C   UNL     1      39.909  33.926  16.456  1.00  0.00    +0.004 A 
ATOM      9  C   UNL     1      39.541  34.142  15.126  1.00  0.00    +0.001 A 
ATOM     10  C   UNL     1      40.437  34.746  14.243  1.00  0.00    +0.016 A 
ATOM     11  C   UNL     1      41.701  35.130  14.700  1.00  0.00    +0.065 A 
ENDROOT
BRANCH   4  12
ATOM     12  C   UNL     1      45.515  36.218  16.346  1.00  0.00    +0.017 A 
ATOM     13  C   UNL     1      45.632  37.226  17.319  1.00  0.00    +0.012 A 
ATOM     14  C   UNL     1      46.687  35.514  16.010  1.00  0.00    +0.012 A 
ATOM     15  C   UNL     1      46.860  37.518  17.925  1.00  0.00    +0.001 A 
ATOM     16  C   UNL     1      47.915  35.803  16.615  1.00  0.00    +0.001 A 
ATOM     17  C   UNL     1      48.001  36.806  17.574  1.00  0.00    +0.000 A 
ENDBRANCH   4  12
TORSDOF 1
ENDMDL
MODEL 4
REMARK VINA RESULT:    -5.945      2.856      4.094
REMARK INTER + INTRA:          -6.515
REMARK INTER:                  -6.293
REMARK INTRA:                  -0.222
REMARK UNBOUND:                -0.222
REMARK SMILES O=c1cc(-c2ccccc2)oc2ccccc12
REMARK SMILES IDX 1 1 2 2 3 3 4 4 11 5 12 6 13 7 14 8 15 9 16 10 17 11 5 12
REMARK SMILES IDX 6 13 10 14 7 15 9 16 8 17
REMARK H PARENT
ROOT
ATOM      1  O   UNL     1      44.081  36.163  13.924  1.00  0.00    -0.289 OA
ATOM      2  C   UNL     1      43.677  35.424  14.813  1.00  0.00    +0.193 C 
ATOM      3  C   UNL     1      44.607  34.846  15.799  1.00  0.00    +0.100 C 
ATOM      4  C   UNL     1      44.144  34.038  16.767  1.00  0.00    +0.138 C 
ATOM      5  O   UNL     1      42.797  33.707  16.891  1.00  0.00    -0.456 OA
ATOM      6  C   UNL     1      41.895  34.221  15.996  1.00  0.00    +0.138 A 
ATOM      7  C   UNL     1      40.557  33.862  16.161  1.00  0.00    +0.048 A 
ATOM      8  C   UNL     1      39.592  34.354  15.280  1.00  0.00    +0.004 A 
ATOM      9  C   UNL     1      39.963  35.204  14.236  1.00  0.00    +0.001 A 
ATOM     10  C   UNL     1      41.301  35.564  14.071  1.00  0.00    +0.016 A 
ATOM     11  C   UNL     1      42.261  35.068  14.956  1.00  0.00    +0.065 A 
ENDROOT
BRANCH   4  12
ATOM     12  C   UNL     1      45.017  33.412  17.803  1.00  0.00    +0.017 A 
ATOM     13  C   UNL     1      45.266  34.006  19.053  1.00  0.00    +0.012 A 
ATOM     14  C   UNL     1      45.633  32.172  17.550  1.00  0.00    +0.012 A 
ATOM     15  C   UNL     1      46.091  33.392  20.003  1.00  0.00    +0.001 A 
ATOM     16  C   UNL     1      46.458  31.556  18.498  1.00  0.00    +0.001 A 
ATOM     17  C   UNL     1      46.687  32.166  19.725  1.00  0.00    +0.000 A 
ENDBRANCH   4  12
TORSDOF 1
ENDMDL
