MODEL 1
REMARK VINA RESULT:    -7.325      0.000      0.000
REMARK INTER + INTRA:          -9.169
REMARK INTER:                  -8.824
REMARK INTRA:                  -0.345
REMARK UNBOUND:                -0.345
REMARK SMILES Oc1ccc(/C=C/c2cc(O)cc(O)c2)cc1
REMARK SMILES IDX 6 1 7 2 5 3 2 4 3 5 17 6 4 7 16 8 1 9 8 11 9 12 15 13 10 14
REMARK SMILES IDX 13 15 12 16 11 17 14 19
REMARK H PARENT 1 10 11 18 14 20
ROOT
ATOM      1  C   UNL     1      41.918  33.164  12.355  1.00  0.00    +0.009 C 
ATOM      2  C   UNL     1      42.550  31.988  12.499  1.00  0.00    +0.009 C 
ENDROOT
BRANCH   1   3
ATOM      3  C   UNL     1      41.783  34.158  13.429  1.00  0.00    -0.025 A 
ATOM      4  C   UNL     1      41.534  35.969  15.546  1.00  0.00    +0.115 A 
ATOM      5  C   UNL     1      42.429  34.913  15.647  1.00  0.00    +0.047 A 
ATOM      6  C   UNL     1      40.753  36.134  14.408  1.00  0.00    +0.047 A 
ATOM      7  C   UNL     1      42.549  34.005  14.592  1.00  0.00    +0.012 A 
ATOM      8  C   UNL     1      40.875  35.225  13.353  1.00  0.00    +0.012 A 
BRANCH   4   9
ATOM      9  O   UNL     1      41.448  36.832  16.598  1.00  0.00    -0.508 OA
ATOM     10  H   UNL     1      41.787  37.698  16.319  1.00  0.00    +0.293 HD
ENDBRANCH   4   9
ENDBRANCH   1   3
BRANCH   2  11
ATOM     11  C   UNL     1      42.679  30.994  11.424  1.00  0.00    -0.018 A 
ATOM     12  C   UNL     1      41.727  30.875  10.402  1.00  0.00    +0.054 A 
ATOM     13  C   UNL     1      43.762  30.103  11.450  1.00  0.00    +0.054 A 
ATOM     14  C   UNL     1      41.874  29.899   9.418  1.00  0.00    +0.119 A 
ATOM     15  C   UNL     1      43.891  29.135  10.454  1.00  0.00    +0.119 A 
ATOM     16  C   UNL     1      42.955  29.026   9.432  1.00  0.00    +0.092 A 
BRANCH  14  17
ATOM     17  O   UNL     1      40.920  29.831   8.444  1.00  0.00    -0.508 OA
ATOM     18  H   UNL     1      40.332  29.083   8.642  1.00  0.00    +0.293 HD
ENDBRANCH  14  17
BRANCH  15  19
ATOM     19  O   UNL     1      44.938  28.261  10.447  1.00  0.00    -0.508 OA
ATOM     20  H   UNL     1      44.704  27.498   9.894  1.00  0.00    +0.293 HD
ENDBRANCH  15  19
ENDBRANCH   2  11
TORSDOF 5
ENDMDL
MODEL 2
REMARK VINA RESULT:    -7.318      0.130      2.009
REMARK INTER + INTRA:          -9.160
REMARK INTER:                  -8.798
REMARK INTRA:                  -0.363
REMARK UNBOUND:                -0.345
REMARK SMILES Oc1ccc(/C=C/c2cc(O)cc(O)c2)cc1
REMARK SMILES IDX 6 1 7 2 5 3 2 4 3 5 17 6 4 7 16 8 1 9 8 11 9 12 15 13 10 14
REMARK SMILES IDX 13 15 12 16 11 17 14 19
REMARK H PARENT 1 10 11 18 14 20
ROOT
ATOM      1  C   UNL     1      41.899  33.107  12.391  1.00  0.00    +0.009 C 
ATOM      2  C   UNL     1      42.606  31.978  12.565  1.00  0.00    +0.009 C 
ENDROOT
BRANCH   1   3
ATOM      3  C   UNL     1      41.731  34.135  13.427  1.00  0.00    -0.025 A 
ATOM      4  C   UNL     1      41.414  36.015  15.475  1.00  0.00    +0.115 A 
ATOM      5  C   UNL     1      42.280  34.944  15.653  1.00  0.00    +0.047 A 
ATOM      6  C   UNL     1      40.695  36.160  14.293  1.00  0.00    +0.047 A 
ATOM      7  C   UNL     1      42.433  34.002  14.632  1.00  0.00    +0.012 A 
ATOM      8  C   UNL     1      40.851  35.217  13.274  1.00  0.00    +0.012 A 
BRANCH   4   9
ATOM      9  O   UNL     1      41.293  36.910  16.495  1.00  0.00    -0.508 OA
ATOM     10  H   UNL     1      40.435  37.359  16.414  1.00  0.00    +0.293 HD
ENDBRANCH   4   9
ENDBRANCH   1   3
BRANCH   2  11
ATOM     11  C   UNL     1      42.768  30.949  11.528  1.00  0.00    -0.018 A 
ATOM     12  C   UNL     1      43.878  30.093  11.495  1.00  0.00    +0.054 A 
ATOM     13  C   UNL     1      41.808  30.855  10.510  1.00  0.00    +0.054 A 
ATOM     14  C   UNL     1      44.006  29.150  10.477  1.00  0.00    +0.119 A 
ATOM     15  C   UNL     1      41.955  29.902   9.501  1.00  0.00    +0.119 A 
ATOM     16  C   UNL     1      43.047  29.044   9.477  1.00  0.00    +0.092 A 
BRANCH  14  17
ATOM     17  O   UNL     1      45.103  28.340  10.497  1.00  0.00    -0.508 OA
ATOM     18  H   UNL     1      45.750  28.712  11.120  1.00  0.00    +0.293 HD
ENDBRANCH  14  17
BRANCH  15  19
ATOM     19  O   UNL     1      41.033  29.780   8.504  1.00  0.00    -0.508 OA
ATOM     20  H   UNL     1      40.167  30.060   8.842  1.00  0.00    +0.293 HD
ENDBRANCH  15  19
ENDBRANCH   2  11
TORSDOF 5
ENDMDL
MODEL 3
REMARK VINA RESULT:    -7.198      1.593      7.397
REMARK INTER + INTRA:          -9.016
REMARK INTER:                  -8.665
REMARK INTRA:                  -0.351
REMARK UNBOUND:                -0.345
REMARK SMILES Oc1ccc(/C=C/c2cc(O)cc(O)c2)cc1
REMARK SMILES IDX 6 1 7 2 5 3 2 4 3 5 17 6 4 7 16 8 1 9 8 11 9 12 15 13 10 14
REMARK SMILES IDX 13 15 12 16 11 17 14 19
REMARK H PARENT 1 10 11 18 14 20
ROOT
ATOM      1  C   UNL     1      41.974  31.646  11.672  1.00  0.00    +0.009 C 
ATOM      2  C   UNL     1      42.461  32.235  12.776  1.00  0.00    +0.009 C 
ENDROOT
BRANCH   1   3
ATOM      3  C   UNL     1      42.659  30.565  10.951  1.00  0.00    -0.025 A 
ATOM      4  C   UNL     1      44.060  28.553   9.603  1.00  0.00    +0.115 A 
ATOM      5  C   UNL     1      44.553  29.047  10.803  1.00  0.00    +0.047 A 
ATOM      6  C   UNL     1      42.882  29.052   9.058  1.00  0.00    +0.047 A 
ATOM      7  C   UNL     1      43.856  30.057  11.473  1.00  0.00    +0.012 A 
ATOM      8  C   UNL     1      42.187  30.061   9.730  1.00  0.00    +0.012 A 
BRANCH   4   9
ATOM      9  O   UNL     1      44.770  27.570   8.981  1.00  0.00    -0.508 OA
ATOM     10  H   UNL     1      44.729  27.715   8.022  1.00  0.00    +0.293 HD
ENDBRANCH   4   9
ENDBRANCH   1   3
BRANCH   2  11
ATOM     11  C   UNL     1      41.775  33.320  13.492  1.00  0.00    -0.018 A 
ATOM     12  C   UNL     1      41.521  33.259  14.869  1.00  0.00    +0.054 A 
ATOM     13  C   UNL     1      41.314  34.428  12.766  1.00  0.00    +0.054 A 
ATOM     14  C   UNL     1      40.842  34.298  15.503  1.00  0.00    +0.119 A 
ATOM     15  C   UNL     1      40.638  35.457  13.420  1.00  0.00    +0.119 A 
ATOM     16  C   UNL     1      40.399  35.404  14.788  1.00  0.00    +0.092 A 
BRANCH  14  17
ATOM     17  O   UNL     1      40.626  34.189  16.846  1.00  0.00    -0.508 OA
ATOM     18  H   UNL     1      39.827  33.654  16.987  1.00  0.00    +0.293 HD
ENDBRANCH  14  17
BRANCH  15  19
ATOM     19  O   UNL     1      40.186  36.551  12.742  1.00  0.00    -0.508 OA
ATOM     20  H   UNL     1      39.223  36.614  12.856  1.00  0.00    +0.293 HD
ENDBRANCH  15  19
ENDBRANCH   2  11
TORSDOF 5
ENDMDL
MODEL 4
REMARK VINA RESULT:    -7.169      5.055      8.435
REMARK INTER + INTRA:          -8.980
REMARK INTER:                  -8.649
REMARK INTRA:                  -0.331
REMARK UNBOUND:                -0.345
REMARK SMILES Oc1ccc(/C=C/c2cc(O)cc(O)c2)cc1
REMARK SMILES IDX 6 1 7 2 5 3 2 4 3 5 17 6 4 7 16 8 1 9 8 11 9 12 15 13 10 14
REMARK SMILES IDX 13 15 12 16 11 17 14 19
REMARK H PARENT 1 10 11 18 14 20
ROOT
ATOM      1  C   UNL     1      44.050  35.760  15.679  1.00  0.00    +0.009 C 
ATOM      2  C   UNL     1      44.577  36.818  16.315  1.00  0.00    +0.009 C 
ENDROOT
BRANCH   1   3
ATOM      3  C   UNL     1      42.774  35.796  14.950  1.00  0.00    -0.025 A 
ATOM      4  C   UNL     1      40.399  35.900  13.476  1.00  0.00    +0.115 A 
ATOM      5  C   UNL     1      41.567  35.464  12.866  1.00  0.00    +0.047 A 
ATOM      6  C   UNL     1      40.396  36.295  14.810  1.00  0.00    +0.047 A 
ATOM      7  C   UNL     1      42.755  35.417  13.602  1.00  0.00    +0.012 A 
ATOM      8  C   UNL     1      41.585  36.247  15.543  1.00  0.00    +0.012 A 
BRANCH   4   9
ATOM      9  O   UNL     1      39.262  35.931  12.724  1.00  0.00    -0.508 OA
ATOM     10  H   UNL     1      38.523  36.209  13.289  1.00  0.00    +0.293 HD
ENDBRANCH   4   9
ENDBRANCH   1   3
BRANCH   2  11
ATOM     11  C   UNL     1      45.852  36.778  17.047  1.00  0.00    -0.018 A 
ATOM     12  C   UNL     1      47.016  36.236  16.485  1.00  0.00    +0.054 A 
ATOM     13  C   UNL     1      45.891  37.249  18.367  1.00  0.00    +0.054 A 
ATOM     14  C   UNL     1      48.196  36.192  17.225  1.00  0.00    +0.119 A 
ATOM     15  C   UNL     1      47.083  37.198  19.090  1.00  0.00    +0.119 A 
ATOM     16  C   UNL     1      48.241  36.674  18.528  1.00  0.00    +0.092 A 
BRANCH  14  17
ATOM     17  O   UNL     1      49.300  35.658  16.628  1.00  0.00    -0.508 OA
ATOM     18  H   UNL     1      49.395  36.055  15.745  1.00  0.00    +0.293 HD
ENDBRANCH  14  17
BRANCH  15  19
ATOM     19  O   UNL     1      47.155  37.657  20.372  1.00  0.00    -0.508 OA
ATOM     20  H   UNL     1      48.090  37.742  20.622  1.00  0.00    +0.293 HD
ENDBRANCH  15  19
ENDBRANCH   2  11
TORSDOF 5
ENDMDL
MODEL 5
REMARK VINA RESULT:    -7.124      1.530      7.236
REMARK INTER + INTRA:          -8.927
REMARK INTER:                  -8.581
REMARK INTRA:                  -0.346
REMARK UNBOUND:                -0.345
REMARK SMILES Oc1ccc(/C=C/c2cc(O)cc(O)c2)cc1
REMARK SMILES IDX 6 1 7 2 5 3 2 4 3 5 17 6 4 7 16 8 1 9 8 11 9 12 15 13 10 14
REMARK SMILES IDX 13 15 12 16 11 17 14 19
REMARK H PARENT 1 10 11 18 14 20
ROOT
ATOM      1  C   UNL     1      41.978  31.688  11.640  1.00  0.00    +0.009 C 
ATOM      2  C   UNL     1      42.441  32.271  12.758  1.00  0.00    +0.009 C 
ENDROOT
BRANCH   1   3
ATOM      3  C   UNL     1      42.655  30.580  10.955  1.00  0.00    -0.025 A 
ATOM      4  C   UNL     1      44.041  28.514   9.674  1.00  0.00    +0.115 A 
ATOM      5  C   UNL     1      44.527  29.031  10.867  1.00  0.00    +0.047 A 
ATOM      6  C   UNL     1      42.876  29.016   9.102  1.00  0.00    +0.047 A 
ATOM      7  C   UNL     1      43.838  30.067  11.503  1.00  0.00    +0.012 A 
ATOM      8  C   UNL     1      42.189  30.052   9.741  1.00  0.00    +0.012 A 
BRANCH   4   9
ATOM      9  O   UNL     1      44.743  27.505   9.085  1.00  0.00    -0.508 OA
ATOM     10  H   UNL     1      45.604  27.427   9.527  1.00  0.00    +0.293 HD
ENDBRANCH   4   9
ENDBRANCH   1   3
BRANCH   2  11
ATOM     11  C   UNL     1      41.763  33.384  13.439  1.00  0.00    -0.018 A 
ATOM     12  C   UNL     1      41.276  34.498  12.741  1.00  0.00    +0.054 A 
ATOM     13  C   UNL     1      41.645  33.354  14.836  1.00  0.00    +0.054 A 
ATOM     14  C   UNL     1      40.664  35.544  13.430  1.00  0.00    +0.119 A 
ATOM     15  C   UNL     1      41.028  34.410  15.506  1.00  0.00    +0.119 A 
ATOM     16  C   UNL     1      40.532  35.508  14.813  1.00  0.00    +0.092 A 
BRANCH  14  17
ATOM     17  O   UNL     1      40.205  36.602  12.701  1.00  0.00    -0.508 OA
ATOM     18  H   UNL     1      40.186  36.344  11.764  1.00  0.00    +0.293 HD
ENDBRANCH  14  17
BRANCH  15  19
ATOM     19  O   UNL     1      40.890  34.404  16.863  1.00  0.00    -0.508 OA
ATOM     20  H   UNL     1      40.556  35.271  17.147  1.00  0.00    +0.293 HD
ENDBRANCH  15  19
ENDBRANCH   2  11
TORSDOF 5
ENDMDL
MODEL 6
REMARK VINA RESULT:    -7.104      5.053      8.430
REMARK INTER + INTRA:          -8.902
REMARK INTER:                  -8.567
REMARK INTRA:                  -0.335
REMARK UNBOUND:                -0.345
REMARK SMILES Oc1ccc(/C=C/c2cc(O)cc(O)c2)cc1
REMARK SMILES IDX 6 1 7 2 5 3 2 4 3 5 17 6 4 7 16 8 1 9 8 11 9 12 15 13 10 14
REMARK SMILES IDX 13 15 12 16 11 17 14 19
REMARK H PARENT 1 10 11 18 14 20
ROOT
ATOM      1  C   UNL     1      44.186  35.769  15.700  1.00  0.00    +0.009 C 
ATOM      2  C   UNL     1      44.661  36.799  16.419  1.00  0.00    +0.009 C 
ENDROOT
BRANCH   1   3
ATOM      3  C   UNL     1      42.885  35.778  15.019  1.00  0.00    -0.025 A 
ATOM      4  C   UNL     1      40.455  35.834  13.633  1.00  0.00    +0.115 A 
ATOM      5  C   UNL     1      41.613  35.440  12.975  1.00  0.00    +0.047 A 
ATOM      6  C   UNL     1      40.490  36.210  14.971  1.00  0.00    +0.047 A 
ATOM      7  C   UNL     1      42.827  35.418  13.666  1.00  0.00    +0.012 A 
ATOM      8  C   UNL     1      41.706  36.186  15.660  1.00  0.00    +0.012 A 
BRANCH   4   9
ATOM      9  O   UNL     1      39.292  35.842  12.922  1.00  0.00    -0.508 OA
ATOM     10  H   UNL     1      38.568  36.106  13.514  1.00  0.00    +0.293 HD
ENDBRANCH   4   9
ENDBRANCH   1   3
BRANCH   2  11
ATOM     11  C   UNL     1      45.962  36.786  17.103  1.00  0.00    -0.018 A 
ATOM     12  C   UNL     1      46.160  37.418  18.339  1.00  0.00    +0.054 A 
ATOM     13  C   UNL     1      47.052  36.165  16.477  1.00  0.00    +0.054 A 
ATOM     14  C   UNL     1      47.418  37.404  18.939  1.00  0.00    +0.119 A 
ATOM     15  C   UNL     1      48.302  36.161  17.096  1.00  0.00    +0.119 A 
ATOM     16  C   UNL     1      48.495  36.775  18.327  1.00  0.00    +0.092 A 
BRANCH  14  17
ATOM     17  O   UNL     1      47.553  38.032  20.143  1.00  0.00    -0.508 OA
ATOM     18  H   UNL     1      48.396  38.516  20.145  1.00  0.00    +0.293 HD
ENDBRANCH  14  17
BRANCH  15  19
ATOM     19  O   UNL     1      49.378  35.557  16.516  1.00  0.00    -0.508 OA
ATOM     20  H   UNL     1      49.744  34.906  17.137  1.00  0.00    +0.293 HD
ENDBRANCH  15  19
ENDBRANCH   2  11
TORSDOF 5
ENDMDL
MODEL 7
REMARK VINA RESULT:    -7.057      5.005      7.323
REMARK INTER + INTRA:          -8.845
REMARK INTER:                  -8.506
REMARK INTRA:                  -0.340
REMARK UNBOUND:                -0.345
REMARK SMILES Oc1ccc(/C=C/c2cc(O)cc(O)c2)cc1
REMARK SMILES IDX 6 1 7 2 5 3 2 4 3 5 17 6 4 7 16 8 1 9 8 11 9 12 15 13 10 14
REMARK SMILES IDX 13 15 12 16 11 17 14 19
REMARK H PARENT 1 10 11 18 14 20
ROOT
ATOM      1  C   UNL     1      45.090  36.569  16.261  1.00  0.00    +0.009 C 
ATOM      2  C   UNL     1      43.963  35.974  16.686  1.00  0.00    +0.009 C 
ENDROOT
BRANCH   1   3
ATOM      3  C   UNL     1      46.221  36.899  17.137  1.00  0.00    -0.025 A 
ATOM      4  C   UNL     1      48.407  37.425  18.803  1.00  0.00    +0.115 A 
ATOM      5  C   UNL     1      48.551  36.547  17.737  1.00  0.00    +0.047 A 
ATOM      6  C   UNL     1      47.187  38.040  19.059  1.00  0.00    +0.047 A 
ATOM      7  C   UNL     1      47.457  36.280  16.909  1.00  0.00    +0.012 A 
ATOM      8  C   UNL     1      46.094  37.772  18.228  1.00  0.00    +0.012 A 
BRANCH   4   9
ATOM      9  O   UNL     1      49.498  37.657  19.587  1.00  0.00    -0.508 OA
ATOM     10  H   UNL     1      50.251  37.161  19.226  1.00  0.00    +0.293 HD
ENDBRANCH   4   9
ENDBRANCH   1   3
BRANCH   2  11
ATOM     11  C   UNL     1      42.831  35.649  15.807  1.00  0.00    -0.018 A 
ATOM     12  C   UNL     1      41.664  35.039  16.291  1.00  0.00    +0.054 A 
ATOM     13  C   UNL     1      42.941  35.910  14.434  1.00  0.00    +0.054 A 
ATOM     14  C   UNL     1      40.626  34.722  15.417  1.00  0.00    +0.119 A 
ATOM     15  C   UNL     1      41.888  35.587  13.577  1.00  0.00    +0.119 A 
ATOM     16  C   UNL     1      40.726  34.995  14.058  1.00  0.00    +0.092 A 
BRANCH  14  17
ATOM     17  O   UNL     1      39.512  34.134  15.942  1.00  0.00    -0.508 OA
ATOM     18  H   UNL     1      38.734  34.466  15.464  1.00  0.00    +0.293 HD
ENDBRANCH  14  17
BRANCH  15  19
ATOM     19  O   UNL     1      41.962  35.838  12.239  1.00  0.00    -0.508 OA
ATOM     20  H   UNL     1      42.123  36.786  12.107  1.00  0.00    +0.293 HD
ENDBRANCH  15  19
ENDBRANCH   2  11
TORSDOF 5
ENDMDL
MODEL 8
REMARK VINA RESULT:    -6.917      5.063      7.304
REMARK INTER + INTRA:          -8.677
REMARK INTER:                  -8.347
REMARK INTRA:                  -0.330
REMARK UNBOUND:                -0.345
REMARK SMILES Oc1ccc(/C=C/c2cc(O)cc(O)c2)cc1
REMARK SMILES IDX 6 1 7 2 5 3 2 4 3 5 17 6 4 7 16 8 1 9 8 11 9 12 15 13 10 14
REMARK SMILES IDX 13 15 12 16 11 17 14 19
REMARK H PARENT 1 10 11 18 14 20
ROOT
ATOM      1  C   UNL     1      44.910  36.682  16.365  1.00  0.00    +0.009 C 
ATOM      2  C   UNL     1      44.071  35.652  16.558  1.00  0.00    +0.009 C 
ENDROOT
BRANCH   1   3
ATOM      3  C   UNL     1      46.110  36.924  17.178  1.00  0.00    -0.025 A 
ATOM      4  C   UNL     1      48.414  37.277  18.725  1.00  0.00    +0.115 A 
ATOM      5  C   UNL     1      48.416  36.351  17.690  1.00  0.00    +0.047 A 
ATOM      6  C   UNL     1      47.276  38.025  19.008  1.00  0.00    +0.047 A 
ATOM      7  C   UNL     1      47.263  36.171  16.921  1.00  0.00    +0.012 A 
ATOM      8  C   UNL     1      46.125  37.843  18.238  1.00  0.00    +0.012 A 
BRANCH   4   9
ATOM      9  O   UNL     1      49.559  37.421  19.451  1.00  0.00    -0.508 OA
ATOM     10  H   UNL     1      50.019  36.566  19.478  1.00  0.00    +0.293 HD
ENDBRANCH   4   9
ENDBRANCH   1   3
BRANCH   2  11
ATOM     11  C   UNL     1      42.868  35.416  15.746  1.00  0.00    -0.018 A 
ATOM     12  C   UNL     1      42.806  35.762  14.389  1.00  0.00    +0.054 A 
ATOM     13  C   UNL     1      41.730  34.875  16.361  1.00  0.00    +0.054 A 
ATOM     14  C   UNL     1      41.636  35.546  13.664  1.00  0.00    +0.119 A 
ATOM     15  C   UNL     1      40.569  34.666  15.616  1.00  0.00    +0.119 A 
ATOM     16  C   UNL     1      40.512  34.995  14.267  1.00  0.00    +0.092 A 
BRANCH  14  17
ATOM     17  O   UNL     1      41.633  35.898  12.346  1.00  0.00    -0.508 OA
ATOM     18  H   UNL     1      40.867  36.473  12.182  1.00  0.00    +0.293 HD
ENDBRANCH  14  17
BRANCH  15  19
ATOM     19  O   UNL     1      39.450  34.132  16.183  1.00  0.00    -0.508 OA
ATOM     20  H   UNL     1      38.798  33.957  15.485  1.00  0.00    +0.293 HD
ENDBRANCH  15  19
ENDBRANCH   2  11
TORSDOF 5
ENDMDL
MODEL 9
REMARK VINA RESULT:    -6.854      4.049      8.492
REMARK INTER + INTRA:          -8.601
REMARK INTER:                  -8.282
REMARK INTRA:                  -0.319
REMARK UNBOUND:                -0.345
REMARK SMILES Oc1ccc(/C=C/c2cc(O)cc(O)c2)cc1
REMARK SMILES IDX 6 1 7 2 5 3 2 4 3 5 17 6 4 7 16 8 1 9 8 11 9 12 15 13 10 14
REMARK SMILES IDX 13 15 12 16 11 17 14 19
REMARK H PARENT 1 10 11 18 14 20
ROOT
ATOM      1  C   UNL     1      43.751  35.462  15.476  1.00  0.00    +0.009 C 
ATOM      2  C   UNL     1      45.070  35.714  15.483  1.00  0.00    +0.009 C 
ENDROOT
BRANCH   1   3
ATOM      3  C   UNL     1      43.067  34.713  14.414  1.00  0.00    -0.025 A 
ATOM      4  C   UNL     1      41.672  33.337  12.417  1.00  0.00    +0.115 A 
ATOM      5  C   UNL     1      41.400  34.679  12.645  1.00  0.00    +0.047 A 
ATOM      6  C   UNL     1      42.624  32.665  13.175  1.00  0.00    +0.047 A 
ATOM      7  C   UNL     1      42.093  35.365  13.646  1.00  0.00    +0.012 A 
ATOM      8  C   UNL     1      43.316  33.353  14.176  1.00  0.00    +0.012 A 
BRANCH   4   9
ATOM      9  O   UNL     1      40.973  32.705  11.431  1.00  0.00    -0.508 OA
ATOM     10  H   UNL     1      41.420  31.869  11.220  1.00  0.00    +0.293 HD
ENDBRANCH   4   9
ENDBRANCH   1   3
BRANCH   2  11
ATOM     11  C   UNL     1      45.751  36.468  16.546  1.00  0.00    -0.018 A 
ATOM     12  C   UNL     1      45.318  37.739  16.952  1.00  0.00    +0.054 A 
ATOM     13  C   UNL     1      46.900  35.923  17.136  1.00  0.00    +0.054 A 
ATOM     14  C   UNL     1      46.010  38.431  17.943  1.00  0.00    +0.119 A 
ATOM     15  C   UNL     1      47.577  36.632  18.128  1.00  0.00    +0.119 A 
ATOM     16  C   UNL     1      47.139  37.885  18.541  1.00  0.00    +0.092 A 
BRANCH  14  17
ATOM     17  O   UNL     1      45.542  39.661  18.303  1.00  0.00    -0.508 OA
ATOM     18  H   UNL     1      44.594  39.704  18.091  1.00  0.00    +0.293 HD
ENDBRANCH  14  17
BRANCH  15  19
ATOM     19  O   UNL     1      48.692  36.123  18.727  1.00  0.00    -0.508 OA
ATOM     20  H   UNL     1      49.297  36.854  18.934  1.00  0.00    +0.293 HD
ENDBRANCH  15  19
ENDBRANCH   2  11
TORSDOF 5
ENDMDL
