MODEL 1
REMARK VINA RESULT:    -9.682      0.000      0.000
REMARK INTER + INTRA:         -11.445
REMARK INTER:                 -11.663
REMARK INTRA:                   0.217
REMARK UNBOUND:                 0.217
REMARK SMILES N#Cc1ccccc1Cn1c(N2CCC[C@@H](N)C2)nc2ccccc2c1=O
REMARK SMILES IDX 10 1 11 2 19 3 20 4 21 5 22 6 23 7 24 8 25 9 26 10 27 11
REMARK SMILES IDX 9 12 8 13 1 14 2 15 3 16 4 17 5 18 7 19 6 20 12 21 13 22
REMARK SMILES IDX 18 23 14 24 16 25 15 26 17 27
REMARK H PARENT 17 28 17 29
ROOT
ATOM      1  N   UNL     1      42.371  34.216  13.872  1.00  0.00    -0.274 N 
ATOM      2  C   UNL     1      43.396  33.657  14.625  1.00  0.00    +0.209 C 
ATOM      3  N   UNL     1      43.946  32.517  14.319  1.00  0.00    -0.214 NA
ATOM      4  C   UNL     1      43.488  31.816  13.199  1.00  0.00    +0.080 A 
ATOM      5  C   UNL     1      44.087  30.595  12.876  1.00  0.00    +0.029 A 
ATOM      6  C   UNL     1      43.661  29.864  11.763  1.00  0.00    +0.002 A 
ATOM      7  C   UNL     1      42.627  30.350  10.961  1.00  0.00    +0.001 A 
ATOM      8  C   UNL     1      42.022  31.566  11.275  1.00  0.00    +0.016 A 
ATOM      9  C   UNL     1      42.457  32.288  12.393  1.00  0.00    +0.066 A 
ATOM     10  C   UNL     1      41.853  33.581  12.746  1.00  0.00    +0.263 C 
ATOM     11  O   UNL     1      40.957  34.039  12.041  1.00  0.00    -0.268 OA
ENDROOT
BRANCH   1  12
ATOM     12  C   UNL     1      41.826  35.530  14.207  1.00  0.00    +0.166 C 
BRANCH  12  13
ATOM     13  C   UNL     1      40.314  35.666  14.037  1.00  0.00    -0.010 A 
ATOM     14  N   UNL     1      40.351  33.236  16.615  1.00  0.00    -0.192 NA
ATOM     15  C   UNL     1      39.939  33.945  15.794  1.00  0.00    +0.099 C 
ATOM     16  C   UNL     1      39.441  34.858  14.804  1.00  0.00    +0.057 A 
ATOM     17  C   UNL     1      38.052  34.947  14.624  1.00  0.00    +0.020 A 
ATOM     18  C   UNL     1      37.515  35.830  13.689  1.00  0.00    +0.001 A 
ATOM     19  C   UNL     1      39.747  36.543  13.094  1.00  0.00    +0.007 A 
ATOM     20  C   UNL     1      38.363  36.629  12.928  1.00  0.00    +0.000 A 
ENDBRANCH  12  13
ENDBRANCH   1  12
BRANCH   2  21
ATOM     21  N   UNL     1      43.847  34.343  15.741  1.00  0.00    -0.341 N 
ATOM     22  C   UNL     1      43.858  33.571  17.004  1.00  0.00    +0.120 C 
ATOM     23  C   UNL     1      45.011  35.245  15.550  1.00  0.00    +0.138 C 
ATOM     24  C   UNL     1      44.635  34.295  18.095  1.00  0.00    +0.023 C 
ATOM     25  C   UNL     1      46.303  34.688  16.192  1.00  0.00    +0.070 C 
ATOM     26  C   UNL     1      46.103  34.493  17.705  1.00  0.00    +0.022 C 
BRANCH  25  27
ATOM     27  N   UNL     1      46.729  33.415  15.581  1.00  0.00    -0.326 NA
ATOM     28  H   UNL     1      47.425  32.976  16.204  1.00  0.00    +0.119 HD
ATOM     29  H   UNL     1      45.951  32.754  15.612  1.00  0.00    +0.119 HD
ENDBRANCH  25  27
ENDBRANCH   2  21
TORSDOF 4
ENDMDL
MODEL 2
REMARK VINA RESULT:    -9.037      2.015      5.330
REMARK INTER + INTRA:         -10.669
REMARK INTER:                  -9.718
REMARK INTRA:                  -0.951
REMARK UNBOUND:                 0.217
REMARK SMILES N#Cc1ccccc1Cn1c(N2CCC[C@@H](N)C2)nc2ccccc2c1=O
REMARK SMILES IDX 10 1 11 2 19 3 20 4 21 5 22 6 23 7 24 8 25 9 26 10 27 11
REMARK SMILES IDX 9 12 8 13 1 14 2 15 3 16 4 17 5 18 7 19 6 20 12 21 13 22
REMARK SMILES IDX 18 23 14 24 16 25 15 26 17 27
REMARK H PARENT 17 28 17 29
ROOT
ATOM      1  N   UNL     1      43.830  31.964  14.366  1.00  0.00    -0.274 N 
ATOM      2  C   UNL     1      42.733  32.738  14.009  1.00  0.00    +0.209 C 
ATOM      3  N   UNL     1      42.079  32.552  12.899  1.00  0.00    -0.214 NA
ATOM      4  C   UNL     1      42.496  31.546  12.020  1.00  0.00    +0.080 A 
ATOM      5  C   UNL     1      41.785  31.351  10.833  1.00  0.00    +0.029 A 
ATOM      6  C   UNL     1      42.167  30.354   9.929  1.00  0.00    +0.002 A 
ATOM      7  C   UNL     1      43.266  29.541  10.207  1.00  0.00    +0.001 A 
ATOM      8  C   UNL     1      43.983  29.728  11.388  1.00  0.00    +0.016 A 
ATOM      9  C   UNL     1      43.591  30.730  12.285  1.00  0.00    +0.066 A 
ATOM     10  C   UNL     1      44.313  30.946  13.547  1.00  0.00    +0.263 C 
ATOM     11  O   UNL     1      45.271  30.227  13.823  1.00  0.00    -0.268 OA
ENDROOT
BRANCH   1  12
ATOM     12  C   UNL     1      44.496  32.157  15.653  1.00  0.00    +0.166 C 
BRANCH  12  13
ATOM     13  C   UNL     1      45.620  33.191  15.652  1.00  0.00    -0.010 A 
ATOM     14  N   UNL     1      44.598  33.507  19.030  1.00  0.00    -0.192 NA
ATOM     15  C   UNL     1      45.165  33.720  18.040  1.00  0.00    +0.099 C 
ATOM     16  C   UNL     1      45.888  33.945  16.819  1.00  0.00    +0.057 A 
ATOM     17  C   UNL     1      46.891  34.927  16.815  1.00  0.00    +0.020 A 
ATOM     18  C   UNL     1      47.635  35.172  15.662  1.00  0.00    +0.001 A 
ATOM     19  C   UNL     1      46.379  33.464  14.499  1.00  0.00    +0.007 A 
ATOM     20  C   UNL     1      47.380  34.439  14.507  1.00  0.00    +0.000 A 
ENDBRANCH  12  13
ENDBRANCH   1  12
BRANCH   2  21
ATOM     21  N   UNL     1      42.322  33.741  14.871  1.00  0.00    -0.341 N 
ATOM     22  C   UNL     1      42.975  35.056  14.678  1.00  0.00    +0.120 C 
ATOM     23  C   UNL     1      40.874  33.804  15.188  1.00  0.00    +0.138 C 
ATOM     24  C   UNL     1      42.261  36.154  15.454  1.00  0.00    +0.023 C 
ATOM     25  C   UNL     1      40.172  35.008  14.515  1.00  0.00    +0.070 C 
ATOM     26  C   UNL     1      40.814  36.325  14.986  1.00  0.00    +0.022 C 
BRANCH  25  27
ATOM     27  N   UNL     1      40.218  34.933  13.044  1.00  0.00    -0.326 NA
ATOM     28  H   UNL     1      40.979  34.288  12.777  1.00  0.00    +0.119 HD
ATOM     29  H   UNL     1      39.384  34.450  12.708  1.00  0.00    +0.119 HD
ENDBRANCH  25  27
ENDBRANCH   2  21
TORSDOF 4
ENDMDL
MODEL 3
REMARK VINA RESULT:    -8.872      2.233      6.209
REMARK INTER + INTRA:         -10.469
REMARK INTER:                  -9.459
REMARK INTRA:                  -1.010
REMARK UNBOUND:                 0.217
REMARK SMILES N#Cc1ccccc1Cn1c(N2CCC[C@@H](N)C2)nc2ccccc2c1=O
REMARK SMILES IDX 10 1 11 2 19 3 20 4 21 5 22 6 23 7 24 8 25 9 26 10 27 11
REMARK SMILES IDX 9 12 8 13 1 14 2 15 3 16 4 17 5 18 7 19 6 20 12 21 13 22
REMARK SMILES IDX 18 23 14 24 16 25 15 26 17 27
REMARK H PARENT 17 28 17 29
ROOT
ATOM      1  N   UNL     1      43.684  33.871  16.270  1.00  0.00    -0.274 N 
ATOM      2  C   UNL     1      43.686  33.085  15.125  1.00  0.00    +0.209 C 
ATOM      3  N   UNL     1      42.911  33.330  14.108  1.00  0.00    -0.214 NA
ATOM      4  C   UNL     1      42.031  34.416  14.165  1.00  0.00    +0.080 A 
ATOM      5  C   UNL     1      41.206  34.673  13.068  1.00  0.00    +0.029 A 
ATOM      6  C   UNL     1      40.315  35.751  13.083  1.00  0.00    +0.002 A 
ATOM      7  C   UNL     1      40.241  36.583  14.200  1.00  0.00    +0.001 A 
ATOM      8  C   UNL     1      41.059  36.334  15.302  1.00  0.00    +0.016 A 
ATOM      9  C   UNL     1      41.947  35.251  15.275  1.00  0.00    +0.066 A 
ATOM     10  C   UNL     1      42.836  34.967  16.411  1.00  0.00    +0.263 C 
ATOM     11  O   UNL     1      42.804  35.700  17.397  1.00  0.00    -0.268 OA
ENDROOT
BRANCH   1  12
ATOM     12  C   UNL     1      44.618  33.606  17.364  1.00  0.00    +0.166 C 
BRANCH  12  13
ATOM     13  C   UNL     1      45.919  34.404  17.312  1.00  0.00    -0.010 A 
ATOM     14  N   UNL     1      45.968  33.512  20.740  1.00  0.00    -0.192 NA
ATOM     15  C   UNL     1      46.278  34.018  19.743  1.00  0.00    +0.099 C 
ATOM     16  C   UNL     1      46.673  34.603  18.492  1.00  0.00    +0.057 A 
ATOM     17  C   UNL     1      47.849  35.370  18.462  1.00  0.00    +0.020 A 
ATOM     18  C   UNL     1      48.286  35.945  17.270  1.00  0.00    +0.001 A 
ATOM     19  C   UNL     1      46.377  35.003  16.124  1.00  0.00    +0.007 A 
ATOM     20  C   UNL     1      47.552  35.758  16.103  1.00  0.00    +0.000 A 
ENDBRANCH  12  13
ENDBRANCH   1  12
BRANCH   2  21
ATOM     21  N   UNL     1      44.548  32.002  15.068  1.00  0.00    -0.341 N 
ATOM     22  C   UNL     1      43.983  30.711  15.519  1.00  0.00    +0.120 C 
ATOM     23  C   UNL     1      45.439  31.915  13.883  1.00  0.00    +0.138 C 
ATOM     24  C   UNL     1      44.887  29.544  15.146  1.00  0.00    +0.023 C 
ATOM     25  C   UNL     1      45.021  30.787  12.911  1.00  0.00    +0.070 C 
ATOM     26  C   UNL     1      45.060  29.427  13.629  1.00  0.00    +0.022 C 
BRANCH  25  27
ATOM     27  N   UNL     1      43.680  31.007  12.340  1.00  0.00    -0.326 NA
ATOM     28  H   UNL     1      43.457  30.209  11.724  1.00  0.00    +0.119 HD
ATOM     29  H   UNL     1      42.983  30.921  13.081  1.00  0.00    +0.119 HD
ENDBRANCH  25  27
ENDBRANCH   2  21
TORSDOF 4
ENDMDL
MODEL 4
REMARK VINA RESULT:    -8.858      3.385      6.110
REMARK INTER + INTRA:         -10.454
REMARK INTER:                  -9.317
REMARK INTRA:                  -1.136
REMARK UNBOUND:                 0.217
REMARK SMILES N#Cc1ccccc1Cn1c(N2CCC[C@@H](N)C2)nc2ccccc2c1=O
REMARK SMILES IDX 10 1 11 2 19 3 20 4 21 5 22 6 23 7 24 8 25 9 26 10 27 11
REMARK SMILES IDX 9 12 8 13 1 14 2 15 3 16 4 17 5 18 7 19 6 20 12 21 13 22
REMARK SMILES IDX 18 23 14 24 16 25 15 26 17 27
REMARK H PARENT 17 28 17 29
ROOT
ATOM      1  N   UNL     1      42.968  30.388  13.854  1.00  0.00    -0.274 N 
ATOM      2  C   UNL     1      42.674  29.565  12.773  1.00  0.00    +0.209 C 
ATOM      3  N   UNL     1      41.872  28.545  12.871  1.00  0.00    -0.214 NA
ATOM      4  C   UNL     1      41.289  28.249  14.108  1.00  0.00    +0.080 A 
ATOM      5  C   UNL     1      40.427  27.153  14.202  1.00  0.00    +0.029 A 
ATOM      6  C   UNL     1      39.821  26.825  15.419  1.00  0.00    +0.002 A 
ATOM      7  C   UNL     1      40.074  27.593  16.556  1.00  0.00    +0.001 A 
ATOM      8  C   UNL     1      40.934  28.687  16.473  1.00  0.00    +0.016 A 
ATOM      9  C   UNL     1      41.535  29.005  15.249  1.00  0.00    +0.066 A 
ATOM     10  C   UNL     1      42.435  30.160  15.120  1.00  0.00    +0.263 C 
ATOM     11  O   UNL     1      42.655  30.864  16.104  1.00  0.00    -0.268 OA
ENDROOT
BRANCH   1  12
ATOM     12  C   UNL     1      43.819  31.565  13.690  1.00  0.00    +0.166 C 
BRANCH  12  13
ATOM     13  C   UNL     1      43.078  32.900  13.663  1.00  0.00    -0.010 A 
ATOM     14  N   UNL     1      45.368  33.607  16.272  1.00  0.00    -0.192 NA
ATOM     15  C   UNL     1      44.480  33.742  15.538  1.00  0.00    +0.099 C 
ATOM     16  C   UNL     1      43.410  33.913  14.594  1.00  0.00    +0.057 A 
ATOM     17  C   UNL     1      42.706  35.127  14.604  1.00  0.00    +0.020 A 
ATOM     18  C   UNL     1      41.671  35.351  13.697  1.00  0.00    +0.001 A 
ATOM     19  C   UNL     1      42.023  33.148  12.765  1.00  0.00    +0.007 A 
ATOM     20  C   UNL     1      41.334  34.363  12.778  1.00  0.00    +0.000 A 
ENDBRANCH  12  13
ENDBRANCH   1  12
BRANCH   2  21
ATOM     21  N   UNL     1      43.256  29.849  11.549  1.00  0.00    -0.341 N 
ATOM     22  C   UNL     1      44.138  28.793  11.002  1.00  0.00    +0.120 C 
ATOM     23  C   UNL     1      42.406  30.536  10.544  1.00  0.00    +0.138 C 
ATOM     24  C   UNL     1      44.488  29.057   9.544  1.00  0.00    +0.023 C 
ATOM     25  C   UNL     1      41.991  29.602   9.382  1.00  0.00    +0.070 C 
ATOM     26  C   UNL     1      43.240  29.071   8.657  1.00  0.00    +0.022 C 
BRANCH  25  27
ATOM     27  N   UNL     1      41.165  28.470   9.840  1.00  0.00    -0.326 NA
ATOM     28  H   UNL     1      41.081  28.528  10.868  1.00  0.00    +0.119 HD
ATOM     29  H   UNL     1      40.204  28.609   9.526  1.00  0.00    +0.119 HD
ENDBRANCH  25  27
ENDBRANCH   2  21
TORSDOF 4
ENDMDL
MODEL 5
REMARK VINA RESULT:    -8.719      1.806      4.678
REMARK INTER + INTRA:         -10.285
REMARK INTER:                  -9.259
REMARK INTRA:                  -1.026
REMARK UNBOUND:                 0.217
REMARK SMILES N#Cc1ccccc1Cn1c(N2CCC[C@@H](N)C2)nc2ccccc2c1=O
REMARK SMILES IDX 10 1 11 2 19 3 20 4 21 5 22 6 23 7 24 8 25 9 26 10 27 11
REMARK SMILES IDX 9 12 8 13 1 14 2 15 3 16 4 17 5 18 7 19 6 20 12 21 13 22
REMARK SMILES IDX 18 23 14 24 16 25 15 26 17 27
REMARK H PARENT 17 28 17 29
ROOT
ATOM      1  N   UNL     1      43.085  33.416  14.676  1.00  0.00    -0.274 N 
ATOM      2  C   UNL     1      43.649  32.443  13.860  1.00  0.00    +0.209 C 
ATOM      3  N   UNL     1      44.934  32.342  13.679  1.00  0.00    -0.214 NA
ATOM      4  C   UNL     1      45.788  33.249  14.316  1.00  0.00    +0.080 A 
ATOM      5  C   UNL     1      47.166  33.130  14.119  1.00  0.00    +0.029 A 
ATOM      6  C   UNL     1      48.054  34.013  14.740  1.00  0.00    +0.002 A 
ATOM      7  C   UNL     1      47.568  35.028  15.566  1.00  0.00    +0.001 A 
ATOM      8  C   UNL     1      46.195  35.156  15.768  1.00  0.00    +0.016 A 
ATOM      9  C   UNL     1      45.316  34.265  15.140  1.00  0.00    +0.066 A 
ATOM     10  C   UNL     1      43.863  34.360  15.342  1.00  0.00    +0.263 C 
ATOM     11  O   UNL     1      43.414  35.232  16.083  1.00  0.00    -0.268 OA
ENDROOT
BRANCH   1  12
ATOM     12  C   UNL     1      41.642  33.456  14.909  1.00  0.00    +0.166 C 
BRANCH  12  13
ATOM     13  C   UNL     1      40.898  34.570  14.177  1.00  0.00    -0.010 A 
ATOM     14  N   UNL     1      38.425  33.757  16.579  1.00  0.00    -0.192 NA
ATOM     15  C   UNL     1      38.927  34.260  15.662  1.00  0.00    +0.099 C 
ATOM     16  C   UNL     1      39.576  34.904  14.555  1.00  0.00    +0.057 A 
ATOM     17  C   UNL     1      38.870  35.899  13.860  1.00  0.00    +0.020 A 
ATOM     18  C   UNL     1      39.460  36.568  12.789  1.00  0.00    +0.001 A 
ATOM     19  C   UNL     1      41.468  35.254  13.087  1.00  0.00    +0.007 A 
ATOM     20  C   UNL     1      40.759  36.247  12.407  1.00  0.00    +0.000 A 
ENDBRANCH  12  13
ENDBRANCH   1  12
BRANCH   2  21
ATOM     21  N   UNL     1      42.807  31.549  13.219  1.00  0.00    -0.341 N 
ATOM     22  C   UNL     1      42.481  31.875  11.812  1.00  0.00    +0.120 C 
ATOM     23  C   UNL     1      43.027  30.106  13.491  1.00  0.00    +0.138 C 
ATOM     24  C   UNL     1      41.807  30.704  11.109  1.00  0.00    +0.023 C 
ATOM     25  C   UNL     1      43.646  29.363  12.283  1.00  0.00    +0.070 C 
ATOM     26  C   UNL     1      42.719  29.475  11.061  1.00  0.00    +0.022 C 
BRANCH  25  27
ATOM     27  N   UNL     1      44.985  29.875  11.938  1.00  0.00    -0.326 NA
ATOM     28  H   UNL     1      44.874  30.607  11.218  1.00  0.00    +0.119 HD
ATOM     29  H   UNL     1      45.360  30.394  12.733  1.00  0.00    +0.119 HD
ENDBRANCH  25  27
ENDBRANCH   2  21
TORSDOF 4
ENDMDL
MODEL 6
REMARK VINA RESULT:    -8.523      3.189      6.935
REMARK INTER + INTRA:         -10.049
REMARK INTER:                  -8.926
REMARK INTRA:                  -1.123
REMARK UNBOUND:                 0.217
REMARK SMILES N#Cc1ccccc1Cn1c(N2CCC[C@@H](N)C2)nc2ccccc2c1=O
REMARK SMILES IDX 10 1 11 2 19 3 20 4 21 5 22 6 23 7 24 8 25 9 26 10 27 11
REMARK SMILES IDX 9 12 8 13 1 14 2 15 3 16 4 17 5 18 7 19 6 20 12 21 13 22
REMARK SMILES IDX 18 23 14 24 16 25 15 26 17 27
REMARK H PARENT 17 28 17 29
ROOT
ATOM      1  N   UNL     1      41.923  30.780  12.890  1.00  0.00    -0.274 N 
ATOM      2  C   UNL     1      41.999  30.408  14.227  1.00  0.00    +0.209 C 
ATOM      3  N   UNL     1      41.991  31.279  15.195  1.00  0.00    -0.214 NA
ATOM      4  C   UNL     1      41.914  32.642  14.888  1.00  0.00    +0.080 A 
ATOM      5  C   UNL     1      41.902  33.568  15.934  1.00  0.00    +0.029 A 
ATOM      6  C   UNL     1      41.823  34.939  15.671  1.00  0.00    +0.002 A 
ATOM      7  C   UNL     1      41.756  35.396  14.354  1.00  0.00    +0.001 A 
ATOM      8  C   UNL     1      41.769  34.480  13.303  1.00  0.00    +0.016 A 
ATOM      9  C   UNL     1      41.849  33.110  13.580  1.00  0.00    +0.066 A 
ATOM     10  C   UNL     1      41.849  32.114  12.498  1.00  0.00    +0.263 C 
ATOM     11  O   UNL     1      41.768  32.493  11.332  1.00  0.00    -0.268 OA
ENDROOT
BRANCH   1  12
ATOM     12  C   UNL     1      41.865  29.771  11.834  1.00  0.00    +0.166 C 
BRANCH  12  13
ATOM     13  C   UNL     1      43.192  29.491  11.132  1.00  0.00    -0.010 A 
ATOM     14  N   UNL     1      40.993  28.651   8.484  1.00  0.00    -0.192 NA
ATOM     15  C   UNL     1      41.981  28.779   9.078  1.00  0.00    +0.099 C 
ATOM     16  C   UNL     1      43.200  28.984   9.811  1.00  0.00    +0.057 A 
ATOM     17  C   UNL     1      44.414  28.685   9.173  1.00  0.00    +0.020 A 
ATOM     18  C   UNL     1      45.626  28.883   9.832  1.00  0.00    +0.001 A 
ATOM     19  C   UNL     1      44.428  29.673  11.778  1.00  0.00    +0.007 A 
ATOM     20  C   UNL     1      45.631  29.379  11.132  1.00  0.00    +0.000 A 
ENDBRANCH  12  13
ENDBRANCH   1  12
BRANCH   2  21
ATOM     21  N   UNL     1      42.084  29.061  14.535  1.00  0.00    -0.341 N 
ATOM     22  C   UNL     1      43.261  28.664  15.341  1.00  0.00    +0.120 C 
ATOM     23  C   UNL     1      40.819  28.372  14.894  1.00  0.00    +0.138 C 
ATOM     24  C   UNL     1      43.118  27.246  15.877  1.00  0.00    +0.023 C 
ATOM     25  C   UNL     1      40.738  28.031  16.401  1.00  0.00    +0.070 C 
ATOM     26  C   UNL     1      41.904  27.111  16.800  1.00  0.00    +0.022 C 
BRANCH  25  27
ATOM     27  N   UNL     1      40.747  29.237  17.250  1.00  0.00    -0.326 NA
ATOM     28  H   UNL     1      41.669  29.299  17.711  1.00  0.00    +0.119 HD
ATOM     29  H   UNL     1      40.738  30.066  16.653  1.00  0.00    +0.119 HD
ENDBRANCH  25  27
ENDBRANCH   2  21
TORSDOF 4
ENDMDL
MODEL 7
REMARK VINA RESULT:    -8.433      2.661      5.819
REMARK INTER + INTRA:          -9.941
REMARK INTER:                  -8.775
REMARK INTRA:                  -1.166
REMARK UNBOUND:                 0.217
REMARK SMILES N#Cc1ccccc1Cn1c(N2CCC[C@@H](N)C2)nc2ccccc2c1=O
REMARK SMILES IDX 10 1 11 2 19 3 20 4 21 5 22 6 23 7 24 8 25 9 26 10 27 11
REMARK SMILES IDX 9 12 8 13 1 14 2 15 3 16 4 17 5 18 7 19 6 20 12 21 13 22
REMARK SMILES IDX 18 23 14 24 16 25 15 26 17 27
REMARK H PARENT 17 28 17 29
ROOT
ATOM      1  N   UNL     1      42.670  31.590  15.151  1.00  0.00    -0.274 N 
ATOM      2  C   UNL     1      42.659  32.949  14.861  1.00  0.00    +0.209 C 
ATOM      3  N   UNL     1      43.682  33.721  15.092  1.00  0.00    -0.214 NA
ATOM      4  C   UNL     1      44.836  33.174  15.663  1.00  0.00    +0.080 A 
ATOM      5  C   UNL     1      45.929  34.010  15.904  1.00  0.00    +0.029 A 
ATOM      6  C   UNL     1      47.103  33.502  16.470  1.00  0.00    +0.002 A 
ATOM      7  C   UNL     1      47.192  32.150  16.802  1.00  0.00    +0.001 A 
ATOM      8  C   UNL     1      46.106  31.308  16.568  1.00  0.00    +0.016 A 
ATOM      9  C   UNL     1      44.936  31.828  16.000  1.00  0.00    +0.066 A 
ATOM     10  C   UNL     1      43.776  30.968  15.725  1.00  0.00    +0.263 C 
ATOM     11  O   UNL     1      43.840  29.769  15.988  1.00  0.00    -0.268 OA
ENDROOT
BRANCH   1  12
ATOM     12  C   UNL     1      41.528  30.742  14.813  1.00  0.00    +0.166 C 
BRANCH  12  13
ATOM     13  C   UNL     1      41.695  29.903  13.548  1.00  0.00    -0.010 A 
ATOM     14  N   UNL     1      39.686  27.664  15.419  1.00  0.00    -0.192 NA
ATOM     15  C   UNL     1      40.347  28.072  14.557  1.00  0.00    +0.099 C 
ATOM     16  C   UNL     1      41.133  28.606  13.480  1.00  0.00    +0.057 A 
ATOM     17  C   UNL     1      41.317  27.812  12.338  1.00  0.00    +0.020 A 
ATOM     18  C   UNL     1      42.056  28.290  11.257  1.00  0.00    +0.001 A 
ATOM     19  C   UNL     1      42.444  30.358  12.448  1.00  0.00    +0.007 A 
ATOM     20  C   UNL     1      42.616  29.563  11.312  1.00  0.00    +0.000 A 
ENDBRANCH  12  13
ENDBRANCH   1  12
BRANCH   2  21
ATOM     21  N   UNL     1      41.515  33.497  14.304  1.00  0.00    -0.341 N 
ATOM     22  C   UNL     1      40.773  34.441  15.170  1.00  0.00    +0.120 C 
ATOM     23  C   UNL     1      41.584  33.884  12.873  1.00  0.00    +0.138 C 
ATOM     24  C   UNL     1      39.719  35.209  14.384  1.00  0.00    +0.023 C 
ATOM     25  C   UNL     1      41.613  35.418  12.674  1.00  0.00    +0.070 C 
ATOM     26  C   UNL     1      40.347  36.054  13.273  1.00  0.00    +0.022 C 
BRANCH  25  27
ATOM     27  N   UNL     1      42.810  36.037  13.274  1.00  0.00    -0.326 NA
ATOM     28  H   UNL     1      42.499  36.791  13.907  1.00  0.00    +0.119 HD
ATOM     29  H   UNL     1      43.245  35.371  13.914  1.00  0.00    +0.119 HD
ENDBRANCH  25  27
ENDBRANCH   2  21
TORSDOF 4
ENDMDL
MODEL 8
REMARK VINA RESULT:    -8.431      1.814      5.321
REMARK INTER + INTRA:          -9.938
REMARK INTER:                  -8.804
REMARK INTRA:                  -1.134
REMARK UNBOUND:                 0.217
REMARK SMILES N#Cc1ccccc1Cn1c(N2CCC[C@@H](N)C2)nc2ccccc2c1=O
REMARK SMILES IDX 10 1 11 2 19 3 20 4 21 5 22 6 23 7 24 8 25 9 26 10 27 11
REMARK SMILES IDX 9 12 8 13 1 14 2 15 3 16 4 17 5 18 7 19 6 20 12 21 13 22
REMARK SMILES IDX 18 23 14 24 16 25 15 26 17 27
REMARK H PARENT 17 28 17 29
ROOT
ATOM      1  N   UNL     1      43.372  33.345  14.215  1.00  0.00    -0.274 N 
ATOM      2  C   UNL     1      43.613  34.194  15.288  1.00  0.00    +0.209 C 
ATOM      3  N   UNL     1      42.843  35.208  15.563  1.00  0.00    -0.214 NA
ATOM      4  C   UNL     1      41.738  35.468  14.747  1.00  0.00    +0.080 A 
ATOM      5  C   UNL     1      40.916  36.557  15.052  1.00  0.00    +0.029 A 
ATOM      6  C   UNL     1      39.798  36.849  14.264  1.00  0.00    +0.002 A 
ATOM      7  C   UNL     1      39.494  36.053  13.159  1.00  0.00    +0.001 A 
ATOM      8  C   UNL     1      40.308  34.965  12.845  1.00  0.00    +0.016 A 
ATOM      9  C   UNL     1      41.424  34.683  13.642  1.00  0.00    +0.066 A 
ATOM     10  C   UNL     1      42.297  33.536  13.351  1.00  0.00    +0.263 C 
ATOM     11  O   UNL     1      42.034  32.808  12.396  1.00  0.00    -0.268 OA
ENDROOT
BRANCH   1  12
ATOM     12  C   UNL     1      44.218  32.177  13.979  1.00  0.00    +0.166 C 
BRANCH  12  13
ATOM     13  C   UNL     1      43.575  30.833  14.315  1.00  0.00    -0.010 A 
ATOM     14  N   UNL     1      45.471  29.833  11.495  1.00  0.00    -0.192 NA
ATOM     15  C   UNL     1      44.718  29.775  12.376  1.00  0.00    +0.099 C 
ATOM     16  C   UNL     1      43.821  29.706  13.495  1.00  0.00    +0.057 A 
ATOM     17  C   UNL     1      43.201  28.478  13.772  1.00  0.00    +0.020 A 
ATOM     18  C   UNL     1      42.335  28.352  14.858  1.00  0.00    +0.001 A 
ATOM     19  C   UNL     1      42.690  30.682  15.399  1.00  0.00    +0.007 A 
ATOM     20  C   UNL     1      42.083  29.453  15.671  1.00  0.00    +0.000 A 
ENDBRANCH  12  13
ENDBRANCH   1  12
BRANCH   2  21
ATOM     21  N   UNL     1      44.712  33.946  16.094  1.00  0.00    -0.341 N 
ATOM     22  C   UNL     1      45.803  34.943  16.010  1.00  0.00    +0.120 C 
ATOM     23  C   UNL     1      44.442  33.430  17.459  1.00  0.00    +0.138 C 
ATOM     24  C   UNL     1      46.819  34.756  17.128  1.00  0.00    +0.023 C 
ATOM     25  C   UNL     1      44.710  34.488  18.556  1.00  0.00    +0.070 C 
ATOM     26  C   UNL     1      46.180  34.940  18.507  1.00  0.00    +0.022 C 
BRANCH  25  27
ATOM     27  N   UNL     1      43.826  35.661  18.432  1.00  0.00    -0.326 NA
ATOM     28  H   UNL     1      44.416  36.509  18.420  1.00  0.00    +0.119 HD
ATOM     29  H   UNL     1      43.407  35.666  17.501  1.00  0.00    +0.119 HD
ENDBRANCH  25  27
ENDBRANCH   2  21
TORSDOF 4
ENDMDL
MODEL 9
REMARK VINA RESULT:    -8.315      3.036      6.239
REMARK INTER + INTRA:          -9.799
REMARK INTER:                  -8.450
REMARK INTRA:                  -1.349
REMARK UNBOUND:                 0.217
REMARK SMILES N#Cc1ccccc1Cn1c(N2CCC[C@@H](N)C2)nc2ccccc2c1=O
REMARK SMILES IDX 10 1 11 2 19 3 20 4 21 5 22 6 23 7 24 8 25 9 26 10 27 11
REMARK SMILES IDX 9 12 8 13 1 14 2 15 3 16 4 17 5 18 7 19 6 20 12 21 13 22
REMARK SMILES IDX 18 23 14 24 16 25 15 26 17 27
REMARK H PARENT 17 28 17 29
ROOT
ATOM      1  N   UNL     1      45.097  30.336  13.112  1.00  0.00    -0.274 N 
ATOM      2  C   UNL     1      44.561  31.548  13.528  1.00  0.00    +0.209 C 
ATOM      3  N   UNL     1      45.290  32.613  13.698  1.00  0.00    -0.214 NA
ATOM      4  C   UNL     1      46.669  32.541  13.468  1.00  0.00    +0.080 A 
ATOM      5  C   UNL     1      47.443  33.691  13.651  1.00  0.00    +0.029 A 
ATOM      6  C   UNL     1      48.823  33.663  13.428  1.00  0.00    +0.002 A 
ATOM      7  C   UNL     1      49.442  32.481  13.021  1.00  0.00    +0.001 A 
ATOM      8  C   UNL     1      48.679  31.328  12.837  1.00  0.00    +0.016 A 
ATOM      9  C   UNL     1      47.298  31.369  13.064  1.00  0.00    +0.066 A 
ATOM     10  C   UNL     1      46.459  30.178  12.866  1.00  0.00    +0.263 C 
ATOM     11  O   UNL     1      46.980  29.132  12.486  1.00  0.00    -0.268 OA
ENDROOT
BRANCH   1  12
ATOM     12  C   UNL     1      44.236  29.181  12.864  1.00  0.00    +0.166 C 
BRANCH  12  13
ATOM     13  C   UNL     1      43.600  29.132  11.477  1.00  0.00    -0.010 A 
ATOM     14  N   UNL     1      40.653  28.919  13.431  1.00  0.00    -0.192 NA
ATOM     15  C   UNL     1      41.340  28.926  12.497  1.00  0.00    +0.099 C 
ATOM     16  C   UNL     1      42.200  28.978  11.347  1.00  0.00    +0.057 A 
ATOM     17  C   UNL     1      41.610  28.891  10.075  1.00  0.00    +0.020 A 
ATOM     18  C   UNL     1      42.397  28.955   8.926  1.00  0.00    +0.001 A 
ATOM     19  C   UNL     1      44.372  29.185  10.302  1.00  0.00    +0.007 A 
ATOM     20  C   UNL     1      43.776  29.104   9.041  1.00  0.00    +0.000 A 
ENDBRANCH  12  13
ENDBRANCH   1  12
BRANCH   2  21
ATOM     21  N   UNL     1      43.198  31.622  13.766  1.00  0.00    -0.341 N 
ATOM     22  C   UNL     1      42.802  31.700  15.190  1.00  0.00    +0.120 C 
ATOM     23  C   UNL     1      42.401  32.473  12.848  1.00  0.00    +0.138 C 
ATOM     24  C   UNL     1      41.334  32.073  15.342  1.00  0.00    +0.023 C 
ATOM     25  C   UNL     1      41.916  33.778  13.523  1.00  0.00    +0.070 C 
ATOM     26  C   UNL     1      41.037  33.450  14.742  1.00  0.00    +0.022 C 
BRANCH  25  27
ATOM     27  N   UNL     1      43.035  34.644  13.939  1.00  0.00    -0.326 NA
ATOM     28  H   UNL     1      43.852  34.043  14.134  1.00  0.00    +0.119 HD
ATOM     29  H   UNL     1      43.347  35.195  13.137  1.00  0.00    +0.119 HD
ENDBRANCH  25  27
ENDBRANCH   2  21
TORSDOF 4
ENDMDL
