MODEL 1
REMARK VINA RESULT:    -8.138      0.000      0.000
REMARK INTER + INTRA:          -9.632
REMARK INTER:                  -9.327
REMARK INTRA:                  -0.305
REMARK UNBOUND:                -0.305
REMARK SMILES O=C1C[C@@H](c2ccc(O)cc2)Oc2cc(O)cc(O)c21
REMARK SMILES IDX 1 1 2 2 3 3 4 4 12 5 13 6 14 7 15 8 17 9 18 10 20 11 5 12
REMARK SMILES IDX 6 13 11 14 7 15 10 16 8 17 9 18 19 20 16 22
REMARK H PARENT 9 19 19 21 16 23
ROOT
ATOM      1  O   UNL     1      42.196  52.870  37.569  1.00  0.00    -0.294 OA
ATOM      2  C   UNL     1      41.705  52.060  36.784  1.00  0.00    +0.174 C 
ATOM      3  C   UNL     1      40.329  51.486  36.954  1.00  0.00    +0.131 C 
ATOM      4  C   UNL     1      40.326  50.085  36.357  1.00  0.00    +0.211 C 
ATOM      5  O   UNL     1      40.667  50.122  34.960  1.00  0.00    -0.484 OA
ATOM      6  C   UNL     1      41.872  50.725  34.718  1.00  0.00    +0.138 A 
ATOM      7  C   UNL     1      42.517  50.381  33.531  1.00  0.00    +0.093 A 
ATOM      8  C   UNL     1      43.749  50.952  33.226  1.00  0.00    +0.123 A 
ATOM      9  C   UNL     1      44.347  51.872  34.083  1.00  0.00    +0.093 A 
ATOM     10  C   UNL     1      43.690  52.230  35.259  1.00  0.00    +0.133 A 
ATOM     11  C   UNL     1      42.451  51.664  35.575  1.00  0.00    +0.102 A 
ENDROOT
BRANCH   4  12
ATOM     12  C   UNL     1      38.960  49.444  36.514  1.00  0.00    -0.007 A 
ATOM     13  C   UNL     1      37.999  49.514  35.492  1.00  0.00    +0.011 A 
ATOM     14  C   UNL     1      38.622  48.795  37.713  1.00  0.00    +0.011 A 
ATOM     15  C   UNL     1      36.738  48.941  35.662  1.00  0.00    +0.046 A 
ATOM     16  C   UNL     1      37.359  48.221  37.884  1.00  0.00    +0.046 A 
ATOM     17  C   UNL     1      36.427  48.301  36.855  1.00  0.00    +0.115 A 
BRANCH  17  18
ATOM     18  O   UNL     1      35.184  47.756  36.978  1.00  0.00    -0.508 OA
ATOM     19  H   UNL     1      35.188  47.138  37.727  1.00  0.00    +0.293 HD
ENDBRANCH  17  18
ENDBRANCH   4  12
BRANCH  10  20
ATOM     20  O   UNL     1      44.315  53.151  36.055  1.00  0.00    -0.507 OA
ATOM     21  H   UNL     1      44.051  52.980  36.988  1.00  0.00    +0.293 HD
ENDBRANCH  10  20
BRANCH   8  22
ATOM     22  O   UNL     1      44.349  50.579  32.060  1.00  0.00    -0.508 OA
ATOM     23  H   UNL     1      45.017  49.900  32.252  1.00  0.00    +0.293 HD
ENDBRANCH   8  22
TORSDOF 4
ENDMDL
MODEL 2
REMARK VINA RESULT:    -7.928      1.854      7.120
REMARK INTER + INTRA:          -9.391
REMARK INTER:                  -9.088
REMARK INTRA:                  -0.304
REMARK UNBOUND:                -0.305
REMARK SMILES O=C1C[C@@H](c2ccc(O)cc2)Oc2cc(O)cc(O)c21
REMARK SMILES IDX 1 1 2 2 3 3 4 4 12 5 13 6 14 7 15 8 17 9 18 10 20 11 5 12
REMARK SMILES IDX 6 13 11 14 7 15 10 16 8 17 9 18 19 20 16 22
REMARK H PARENT 9 19 19 21 16 23
ROOT
ATOM      1  O   UNL     1      36.861  48.961  35.172  1.00  0.00    -0.294 OA
ATOM      2  C   UNL     1      37.819  49.392  35.810  1.00  0.00    +0.174 C 
ATOM      3  C   UNL     1      38.903  50.228  35.195  1.00  0.00    +0.131 C 
ATOM      4  C   UNL     1      40.196  49.955  35.952  1.00  0.00    +0.211 C 
ATOM      5  O   UNL     1      40.057  50.289  37.343  1.00  0.00    -0.484 OA
ATOM      6  C   UNL     1      39.019  49.634  37.951  1.00  0.00    +0.138 A 
ATOM      7  C   UNL     1      39.099  49.484  39.334  1.00  0.00    +0.093 A 
ATOM      8  C   UNL     1      38.080  48.822  40.015  1.00  0.00    +0.123 A 
ATOM      9  C   UNL     1      36.975  48.314  39.337  1.00  0.00    +0.093 A 
ATOM     10  C   UNL     1      36.889  48.483  37.956  1.00  0.00    +0.133 A 
ATOM     11  C   UNL     1      37.905  49.149  37.262  1.00  0.00    +0.102 A 
ENDROOT
BRANCH   4  12
ATOM     12  C   UNL     1      41.337  50.764  35.363  1.00  0.00    -0.007 A 
ATOM     13  C   UNL     1      41.669  52.032  35.866  1.00  0.00    +0.011 A 
ATOM     14  C   UNL     1      42.061  50.264  34.267  1.00  0.00    +0.011 A 
ATOM     15  C   UNL     1      42.704  52.775  35.297  1.00  0.00    +0.046 A 
ATOM     16  C   UNL     1      43.098  51.008  33.696  1.00  0.00    +0.046 A 
ATOM     17  C   UNL     1      43.409  52.258  34.218  1.00  0.00    +0.115 A 
BRANCH  17  18
ATOM     18  O   UNL     1      44.412  53.017  33.692  1.00  0.00    -0.508 OA
ATOM     19  H   UNL     1      45.021  52.436  33.208  1.00  0.00    +0.293 HD
ENDBRANCH  17  18
ENDBRANCH   4  12
BRANCH  10  20
ATOM     20  O   UNL     1      35.773  47.980  37.344  1.00  0.00    -0.507 OA
ATOM     21  H   UNL     1      35.305  47.401  37.988  1.00  0.00    +0.293 HD
ENDBRANCH  10  20
BRANCH   8  22
ATOM     22  O   UNL     1      38.203  48.689  41.366  1.00  0.00    -0.508 OA
ATOM     23  H   UNL     1      37.443  49.117  41.795  1.00  0.00    +0.293 HD
ENDBRANCH   8  22
TORSDOF 4
ENDMDL
MODEL 3
REMARK VINA RESULT:    -7.706      3.399      5.188
REMARK INTER + INTRA:          -9.137
REMARK INTER:                  -8.825
REMARK INTRA:                  -0.312
REMARK UNBOUND:                -0.305
REMARK SMILES O=C1C[C@@H](c2ccc(O)cc2)Oc2cc(O)cc(O)c21
REMARK SMILES IDX 1 1 2 2 3 3 4 4 12 5 13 6 14 7 15 8 17 9 18 10 20 11 5 12
REMARK SMILES IDX 6 13 11 14 7 15 10 16 8 17 9 18 19 20 16 22
REMARK H PARENT 9 19 19 21 16 23
ROOT
ATOM      1  O   UNL     1      36.530  49.723  36.207  1.00  0.00    -0.294 OA
ATOM      2  C   UNL     1      37.418  49.540  37.037  1.00  0.00    +0.174 C 
ATOM      3  C   UNL     1      37.163  48.954  38.395  1.00  0.00    +0.131 C 
ATOM      4  C   UNL     1      38.188  49.536  39.360  1.00  0.00    +0.211 C 
ATOM      5  O   UNL     1      39.526  49.220  38.940  1.00  0.00    -0.484 OA
ATOM      6  C   UNL     1      39.801  49.640  37.665  1.00  0.00    +0.138 A 
ATOM      7  C   UNL     1      41.143  49.845  37.350  1.00  0.00    +0.093 A 
ATOM      8  C   UNL     1      41.492  50.278  36.074  1.00  0.00    +0.123 A 
ATOM      9  C   UNL     1      40.522  50.502  35.101  1.00  0.00    +0.093 A 
ATOM     10  C   UNL     1      39.183  50.276  35.413  1.00  0.00    +0.133 A 
ATOM     11  C   UNL     1      38.820  49.839  36.691  1.00  0.00    +0.102 A 
ENDROOT
BRANCH   4  12
ATOM     12  C   UNL     1      37.969  48.990  40.759  1.00  0.00    -0.007 A 
ATOM     13  C   UNL     1      36.844  48.211  41.071  1.00  0.00    +0.011 A 
ATOM     14  C   UNL     1      38.884  49.293  41.782  1.00  0.00    +0.011 A 
ATOM     15  C   UNL     1      36.644  47.738  42.369  1.00  0.00    +0.046 A 
ATOM     16  C   UNL     1      38.684  48.820  43.082  1.00  0.00    +0.046 A 
ATOM     17  C   UNL     1      37.564  48.046  43.363  1.00  0.00    +0.115 A 
BRANCH  17  18
ATOM     18  O   UNL     1      37.330  47.563  44.616  1.00  0.00    -0.508 OA
ATOM     19  H   UNL     1      37.312  46.593  44.577  1.00  0.00    +0.293 HD
ENDBRANCH  17  18
ENDBRANCH   4  12
BRANCH  10  20
ATOM     20  O   UNL     1      38.274  50.495  34.413  1.00  0.00    -0.507 OA
ATOM     21  H   UNL     1      37.527  49.865  34.535  1.00  0.00    +0.293 HD
ENDBRANCH  10  20
BRANCH   8  22
ATOM     22  O   UNL     1      42.815  50.476  35.812  1.00  0.00    -0.508 OA
ATOM     23  H   UNL     1      43.215  50.959  36.554  1.00  0.00    +0.293 HD
ENDBRANCH   8  22
TORSDOF 4
ENDMDL
MODEL 4
REMARK VINA RESULT:    -7.437      3.218      7.610
REMARK INTER + INTRA:          -8.828
REMARK INTER:                  -8.540
REMARK INTRA:                  -0.288
REMARK UNBOUND:                -0.305
REMARK SMILES O=C1C[C@@H](c2ccc(O)cc2)Oc2cc(O)cc(O)c21
REMARK SMILES IDX 1 1 2 2 3 3 4 4 12 5 13 6 14 7 15 8 17 9 18 10 20 11 5 12
REMARK SMILES IDX 6 13 11 14 7 15 10 16 8 17 9 18 19 20 16 22
REMARK H PARENT 9 19 19 21 16 23
ROOT
ATOM      1  O   UNL     1      36.120  47.870  38.539  1.00  0.00    -0.294 OA
ATOM      2  C   UNL     1      37.122  48.543  38.771  1.00  0.00    +0.174 C 
ATOM      3  C   UNL     1      37.831  49.346  37.720  1.00  0.00    +0.131 C 
ATOM      4  C   UNL     1      39.308  49.403  38.086  1.00  0.00    +0.211 C 
ATOM      5  O   UNL     1      39.495  50.017  39.373  1.00  0.00    -0.484 OA
ATOM      6  C   UNL     1      38.795  49.393  40.371  1.00  0.00    +0.138 A 
ATOM      7  C   UNL     1      39.273  49.562  41.670  1.00  0.00    +0.093 A 
ATOM      8  C   UNL     1      38.613  48.949  42.731  1.00  0.00    +0.123 A 
ATOM      9  C   UNL     1      37.475  48.175  42.520  1.00  0.00    +0.093 A 
ATOM     10  C   UNL     1      36.988  48.025  41.223  1.00  0.00    +0.133 A 
ATOM     11  C   UNL     1      37.641  48.638  40.148  1.00  0.00    +0.102 A 
ENDROOT
BRANCH   4  12
ATOM     12  C   UNL     1      40.083  50.193  37.047  1.00  0.00    -0.007 A 
ATOM     13  C   UNL     1      39.887  51.574  36.884  1.00  0.00    +0.011 A 
ATOM     14  C   UNL     1      40.990  49.537  36.199  1.00  0.00    +0.011 A 
ATOM     15  C   UNL     1      40.588  52.281  35.907  1.00  0.00    +0.046 A 
ATOM     16  C   UNL     1      41.693  50.245  35.220  1.00  0.00    +0.046 A 
ATOM     17  C   UNL     1      41.484  51.612  35.083  1.00  0.00    +0.115 A 
BRANCH  17  18
ATOM     18  O   UNL     1      42.147  52.343  34.142  1.00  0.00    -0.508 OA
ATOM     19  H   UNL     1      41.700  53.199  34.042  1.00  0.00    +0.293 HD
ENDBRANCH  17  18
ENDBRANCH   4  12
BRANCH  10  20
ATOM     20  O   UNL     1      35.856  47.270  41.075  1.00  0.00    -0.507 OA
ATOM     21  H   UNL     1      35.487  47.442  40.178  1.00  0.00    +0.293 HD
ENDBRANCH  10  20
BRANCH   8  22
ATOM     22  O   UNL     1      39.120  49.132  43.984  1.00  0.00    -0.508 OA
ATOM     23  H   UNL     1      39.494  50.027  44.044  1.00  0.00    +0.293 HD
ENDBRANCH   8  22
TORSDOF 4
ENDMDL
