MODEL 1
REMARK VINA RESULT:    -5.200      0.000      0.000
REMARK INTER + INTRA:          -6.161
REMARK INTER:                  -5.960
REMARK INTRA:                  -0.201
REMARK UNBOUND:                -0.201
REMARK SMILES CC(C)C(N)C(=O)N1CCCC1
REMARK SMILES IDX 4 1 2 2 1 3 3 4 5 5 6 8 7 9 8 10 9 11 12 12 10 13 11 14
REMARK H PARENT 5 6 5 7
ROOT
ATOM      1  C   UNL     1      38.842  50.664  35.486  1.00  0.00    +0.144 C 
ENDROOT
BRANCH   1   2
ATOM      2  C   UNL     1      38.042  49.631  36.320  1.00  0.00    +0.009 C 
ATOM      3  C   UNL     1      37.008  48.880  35.472  1.00  0.00    +0.009 C 
ATOM      4  C   UNL     1      38.980  48.607  36.973  1.00  0.00    +0.009 C 
ENDBRANCH   1   2
BRANCH   1   5
ATOM      5  N   UNL     1      37.976  51.615  34.749  1.00  0.00    -0.320 NA
ATOM      6  H   UNL     1      37.103  51.712  35.271  1.00  0.00    +0.119 HD
ATOM      7  H   UNL     1      38.408  52.537  34.769  1.00  0.00    +0.119 HD
ENDBRANCH   1   5
BRANCH   1   8
ATOM      8  C   UNL     1      39.891  51.432  36.335  1.00  0.00    +0.239 C 
ATOM      9  O   UNL     1      39.504  52.131  37.278  1.00  0.00    -0.273 OA
ATOM     10  N   UNL     1      41.230  51.362  36.013  1.00  0.00    -0.341 N 
ATOM     11  C   UNL     1      42.212  52.110  36.780  1.00  0.00    +0.119 C 
ATOM     12  C   UNL     1      41.879  50.508  35.029  1.00  0.00    +0.119 C 
ATOM     13  C   UNL     1      43.557  51.531  36.365  1.00  0.00    +0.023 C 
ATOM     14  C   UNL     1      43.298  51.053  34.943  1.00  0.00    +0.023 C 
ENDBRANCH   1   8
TORSDOF 3
ENDMDL
MODEL 2
REMARK VINA RESULT:    -4.631      3.465      4.653
REMARK INTER + INTRA:          -5.508
REMARK INTER:                  -5.445
REMARK INTRA:                  -0.064
REMARK UNBOUND:                -0.201
REMARK SMILES CC(C)C(N)C(=O)N1CCCC1
REMARK SMILES IDX 4 1 2 2 1 3 3 4 5 5 6 8 7 9 8 10 9 11 12 12 10 13 11 14
REMARK H PARENT 5 6 5 7
ROOT
ATOM      1  C   UNL     1      37.862  50.514  36.659  1.00  0.00    +0.144 C 
ENDROOT
BRANCH   1   2
ATOM      2  C   UNL     1      37.760  48.983  36.436  1.00  0.00    +0.009 C 
ATOM      3  C   UNL     1      37.603  48.215  37.755  1.00  0.00    +0.009 C 
ATOM      4  C   UNL     1      36.576  48.638  35.522  1.00  0.00    +0.009 C 
ENDBRANCH   1   2
BRANCH   1   5
ATOM      5  N   UNL     1      37.667  51.299  35.418  1.00  0.00    -0.320 NA
ATOM      6  H   UNL     1      36.995  52.041  35.620  1.00  0.00    +0.119 HD
ATOM      7  H   UNL     1      38.538  51.777  35.190  1.00  0.00    +0.119 HD
ENDBRANCH   1   5
BRANCH   1   8
ATOM      8  C   UNL     1      36.909  51.017  37.777  1.00  0.00    +0.239 C 
ATOM      9  O   UNL     1      35.702  51.126  37.531  1.00  0.00    -0.273 OA
ATOM     10  N   UNL     1      37.412  51.372  39.010  1.00  0.00    -0.341 N 
ATOM     11  C   UNL     1      36.529  51.882  40.047  1.00  0.00    +0.119 C 
ATOM     12  C   UNL     1      38.765  51.200  39.518  1.00  0.00    +0.119 C 
ATOM     13  C   UNL     1      37.357  51.838  41.323  1.00  0.00    +0.023 C 
ATOM     14  C   UNL     1      38.781  52.003  40.812  1.00  0.00    +0.023 C 
ENDBRANCH   1   8
TORSDOF 3
ENDMDL
MODEL 3
REMARK VINA RESULT:    -4.454      3.566      5.038
REMARK INTER + INTRA:          -5.307
REMARK INTER:                  -5.258
REMARK INTRA:                  -0.048
REMARK UNBOUND:                -0.201
REMARK SMILES CC(C)C(N)C(=O)N1CCCC1
REMARK SMILES IDX 4 1 2 2 1 3 3 4 5 5 6 8 7 9 8 10 9 11 12 12 10 13 11 14
REMARK H PARENT 5 6 5 7
ROOT
ATOM      1  C   UNL     1      38.187  50.874  37.655  1.00  0.00    +0.144 C 
ENDROOT
BRANCH   1   2
ATOM      2  C   UNL     1      38.360  49.527  36.907  1.00  0.00    +0.009 C 
ATOM      3  C   UNL     1      37.553  49.482  35.603  1.00  0.00    +0.009 C 
ATOM      4  C   UNL     1      39.836  49.265  36.580  1.00  0.00    +0.009 C 
ENDBRANCH   1   2
BRANCH   1   5
ATOM      5  N   UNL     1      37.745  51.979  36.772  1.00  0.00    -0.320 NA
ATOM      6  H   UNL     1      38.042  52.858  37.199  1.00  0.00    +0.119 HD
ATOM      7  H   UNL     1      38.255  51.920  35.891  1.00  0.00    +0.119 HD
ENDBRANCH   1   5
BRANCH   1   8
ATOM      8  C   UNL     1      37.249  50.754  38.887  1.00  0.00    +0.239 C 
ATOM      9  O   UNL     1      36.108  51.225  38.819  1.00  0.00    -0.273 OA
ATOM     10  N   UNL     1      37.702  50.166  40.048  1.00  0.00    -0.341 N 
ATOM     11  C   UNL     1      36.841  50.088  41.218  1.00  0.00    +0.119 C 
ATOM     12  C   UNL     1      38.952  49.457  40.275  1.00  0.00    +0.119 C 
ATOM     13  C   UNL     1      37.535  49.105  42.150  1.00  0.00    +0.023 C 
ATOM     14  C   UNL     1      39.004  49.268  41.785  1.00  0.00    +0.023 C 
ENDBRANCH   1   8
TORSDOF 3
ENDMDL
MODEL 4
REMARK VINA RESULT:    -4.428      1.729      4.291
REMARK INTER + INTRA:          -5.276
REMARK INTER:                  -5.509
REMARK INTRA:                   0.232
REMARK UNBOUND:                -0.201
REMARK SMILES CC(C)C(N)C(=O)N1CCCC1
REMARK SMILES IDX 4 1 2 2 1 3 3 4 5 5 6 8 7 9 8 10 9 11 12 12 10 13 11 14
REMARK H PARENT 5 6 5 7
ROOT
ATOM      1  C   UNL     1      40.040  51.253  36.053  1.00  0.00    +0.144 C 
ENDROOT
BRANCH   1   2
ATOM      2  C   UNL     1      41.167  50.209  35.848  1.00  0.00    +0.009 C 
ATOM      3  C   UNL     1      41.992  50.489  34.586  1.00  0.00    +0.009 C 
ATOM      4  C   UNL     1      42.113  50.177  37.057  1.00  0.00    +0.009 C 
ENDBRANCH   1   2
BRANCH   1   5
ATOM      5  N   UNL     1      39.123  51.356  34.893  1.00  0.00    -0.320 NA
ATOM      6  H   UNL     1      38.200  51.617  35.246  1.00  0.00    +0.119 HD
ATOM      7  H   UNL     1      39.419  52.136  34.308  1.00  0.00    +0.119 HD
ENDBRANCH   1   5
BRANCH   1   8
ATOM      8  C   UNL     1      39.237  51.015  37.361  1.00  0.00    +0.239 C 
ATOM      9  O   UNL     1      39.200  51.909  38.213  1.00  0.00    -0.273 OA
ATOM     10  N   UNL     1      38.610  49.807  37.579  1.00  0.00    -0.341 N 
ATOM     11  C   UNL     1      37.890  49.565  38.819  1.00  0.00    +0.119 C 
ATOM     12  C   UNL     1      38.442  48.695  36.655  1.00  0.00    +0.119 C 
ATOM     13  C   UNL     1      37.074  48.306  38.559  1.00  0.00    +0.023 C 
ATOM     14  C   UNL     1      37.910  47.565  37.526  1.00  0.00    +0.023 C 
ENDBRANCH   1   8
TORSDOF 3
ENDMDL
MODEL 5
REMARK VINA RESULT:    -4.175      3.651      5.109
REMARK INTER + INTRA:          -4.987
REMARK INTER:                  -4.821
REMARK INTRA:                  -0.166
REMARK UNBOUND:                -0.201
REMARK SMILES CC(C)C(N)C(=O)N1CCCC1
REMARK SMILES IDX 4 1 2 2 1 3 3 4 5 5 6 8 7 9 8 10 9 11 12 12 10 13 11 14
REMARK H PARENT 5 6 5 7
ROOT
ATOM      1  C   UNL     1      36.831  50.442  40.076  1.00  0.00    +0.144 C 
ENDROOT
BRANCH   1   2
ATOM      2  C   UNL     1      37.730  49.664  41.070  1.00  0.00    +0.009 C 
ATOM      3  C   UNL     1      37.877  50.394  42.412  1.00  0.00    +0.009 C 
ATOM      4  C   UNL     1      37.171  48.259  41.334  1.00  0.00    +0.009 C 
ENDBRANCH   1   2
BRANCH   1   5
ATOM      5  N   UNL     1      36.000  51.479  40.732  1.00  0.00    -0.320 NA
ATOM      6  H   UNL     1      35.911  51.231  41.719  1.00  0.00    +0.119 HD
ATOM      7  H   UNL     1      36.507  52.363  40.720  1.00  0.00    +0.119 HD
ENDBRANCH   1   5
BRANCH   1   8
ATOM      8  C   UNL     1      37.637  51.055  38.898  1.00  0.00    +0.239 C 
ATOM      9  O   UNL     1      38.258  52.108  39.081  1.00  0.00    -0.273 OA
ATOM     10  N   UNL     1      37.623  50.451  37.660  1.00  0.00    -0.341 N 
ATOM     11  C   UNL     1      38.343  51.042  36.544  1.00  0.00    +0.119 C 
ATOM     12  C   UNL     1      37.057  49.162  37.290  1.00  0.00    +0.119 C 
ATOM     13  C   UNL     1      38.379  49.953  35.480  1.00  0.00    +0.023 C 
ATOM     14  C   UNL     1      37.117  49.153  35.768  1.00  0.00    +0.023 C 
ENDBRANCH   1   8
TORSDOF 3
ENDMDL
MODEL 6
REMARK VINA RESULT:    -3.910      9.648     10.774
REMARK INTER + INTRA:          -4.682
REMARK INTER:                  -4.505
REMARK INTRA:                  -0.178
REMARK UNBOUND:                -0.201
REMARK SMILES CC(C)C(N)C(=O)N1CCCC1
REMARK SMILES IDX 4 1 2 2 1 3 3 4 5 5 6 8 7 9 8 10 9 11 12 12 10 13 11 14
REMARK H PARENT 5 6 5 7
ROOT
ATOM      1  C   UNL     1      35.235  51.238  44.960  1.00  0.00    +0.144 C 
ENDROOT
BRANCH   1   2
ATOM      2  C   UNL     1      35.088  52.069  46.260  1.00  0.00    +0.009 C 
ATOM      3  C   UNL     1      34.200  53.304  46.061  1.00  0.00    +0.009 C 
ATOM      4  C   UNL     1      34.500  51.218  47.394  1.00  0.00    +0.009 C 
ENDBRANCH   1   2
BRANCH   1   5
ATOM      5  N   UNL     1      34.967  52.023  43.733  1.00  0.00    -0.320 NA
ATOM      6  H   UNL     1      35.825  52.039  43.178  1.00  0.00    +0.119 HD
ATOM      7  H   UNL     1      34.286  51.523  43.163  1.00  0.00    +0.119 HD
ENDBRANCH   1   5
BRANCH   1   8
ATOM      8  C   UNL     1      36.611  50.525  44.860  1.00  0.00    +0.239 C 
ATOM      9  O   UNL     1      37.610  51.190  44.567  1.00  0.00    -0.273 OA
ATOM     10  N   UNL     1      36.703  49.164  45.058  1.00  0.00    -0.341 N 
ATOM     11  C   UNL     1      37.982  48.485  44.927  1.00  0.00    +0.119 C 
ATOM     12  C   UNL     1      35.673  48.247  45.524  1.00  0.00    +0.119 C 
ATOM     13  C   UNL     1      37.759  47.108  45.535  1.00  0.00    +0.023 C 
ATOM     14  C   UNL     1      36.275  46.866  45.297  1.00  0.00    +0.023 C 
ENDBRANCH   1   8
TORSDOF 3
ENDMDL
MODEL 7
REMARK VINA RESULT:    -3.904     10.922     12.328
REMARK INTER + INTRA:          -4.676
REMARK INTER:                  -4.544
REMARK INTRA:                  -0.132
REMARK UNBOUND:                -0.201
REMARK SMILES CC(C)C(N)C(=O)N1CCCC1
REMARK SMILES IDX 4 1 2 2 1 3 3 4 5 5 6 8 7 9 8 10 9 11 12 12 10 13 11 14
REMARK H PARENT 5 6 5 7
ROOT
ATOM      1  C   UNL     1      36.661  48.739  45.548  1.00  0.00    +0.144 C 
ENDROOT
BRANCH   1   2
ATOM      2  C   UNL     1      37.548  47.894  44.598  1.00  0.00    +0.009 C 
ATOM      3  C   UNL     1      36.974  47.831  43.176  1.00  0.00    +0.009 C 
ATOM      4  C   UNL     1      38.973  48.459  44.528  1.00  0.00    +0.009 C 
ENDBRANCH   1   2
BRANCH   1   5
ATOM      5  N   UNL     1      35.475  49.320  44.877  1.00  0.00    -0.320 NA
ATOM      6  H   UNL     1      35.115  48.624  44.221  1.00  0.00    +0.119 HD
ATOM      7  H   UNL     1      34.736  49.447  45.567  1.00  0.00    +0.119 HD
ENDBRANCH   1   5
BRANCH   1   8
ATOM      8  C   UNL     1      36.237  47.956  46.820  1.00  0.00    +0.239 C 
ATOM      9  O   UNL     1      36.115  46.727  46.755  1.00  0.00    -0.273 OA
ATOM     10  N   UNL     1      35.965  48.630  47.991  1.00  0.00    -0.341 N 
ATOM     11  C   UNL     1      35.529  47.905  49.174  1.00  0.00    +0.119 C 
ATOM     12  C   UNL     1      36.167  50.040  48.290  1.00  0.00    +0.119 C 
ATOM     13  C   UNL     1      35.657  48.905  50.315  1.00  0.00    +0.023 C 
ATOM     14  C   UNL     1      35.454  50.243  49.621  1.00  0.00    +0.023 C 
ENDBRANCH   1   8
TORSDOF 3
ENDMDL
