MODEL 1
REMARK VINA RESULT:    -7.453      0.000      0.000
REMARK INTER + INTRA:         -12.904
REMARK INTER:                 -11.593
REMARK INTRA:                  -1.311
REMARK UNBOUND:                -1.311
REMARK SMILES CC(C)C[C@H](NC(=O)[C@@H](O)[C@H](N)Cc1ccccc1)C(=O)O
REMARK SMILES IDX 6 1 7 2 8 3 5 5 4 6 2 7 1 8 3 9 20 10 21 11 22 12 9 14 10 15
REMARK SMILES IDX 11 17 12 18 13 21 14 22 15 23 19 24 16 25 18 26 17 27
REMARK H PARENT 6 4 22 13 10 16 12 19 12 20
ROOT
ATOM      1  N   UNL     1      42.137  36.072  15.785  1.00  0.00    -0.340 N 
ATOM      2  C   UNL     1      42.761  35.159  16.618  1.00  0.00    +0.251 C 
ATOM      3  O   UNL     1      42.473  33.969  16.649  1.00  0.00    -0.272 OA
ATOM      4  H   UNL     1      42.658  36.929  15.638  1.00  0.00    +0.164 HD
ENDROOT
BRANCH   1   5
ATOM      5  C   UNL     1      41.283  35.627  14.689  1.00  0.00    +0.192 C 
BRANCH   5   6
ATOM      6  C   UNL     1      40.139  36.614  14.383  1.00  0.00    +0.040 C 
BRANCH   6   7
ATOM      7  C   UNL     1      38.966  36.191  13.466  1.00  0.00    -0.015 C 
ATOM      8  C   UNL     1      38.309  37.344  12.711  1.00  0.00    +0.007 C 
ATOM      9  C   UNL     1      37.910  35.347  14.186  1.00  0.00    +0.007 C 
ENDBRANCH   6   7
ENDBRANCH   5   6
BRANCH   5  10
ATOM     10  C   UNL     1      42.087  35.271  13.428  1.00  0.00    +0.326 C 
ATOM     11  O   UNL     1      42.145  35.928  12.399  1.00  0.00    -0.250 OA
BRANCH  10  12
ATOM     12  O   UNL     1      42.794  34.122  13.529  1.00  0.00    -0.480 OA
ATOM     13  H   UNL     1      42.521  33.757  14.397  1.00  0.00    +0.296 HD
ENDBRANCH  10  12
ENDBRANCH   5  10
ENDBRANCH   1   5
BRANCH   2  14
ATOM     14  C   UNL     1      43.842  35.807  17.508  1.00  0.00    +0.220 C 
BRANCH  14  15
ATOM     15  O   UNL     1      43.995  34.983  18.683  1.00  0.00    -0.382 OA
ATOM     16  H   UNL     1      43.175  34.463  18.759  1.00  0.00    +0.211 HD
ENDBRANCH  14  15
BRANCH  14  17
ATOM     17  C   UNL     1      45.203  35.961  16.785  1.00  0.00    +0.093 C 
BRANCH  17  18
ATOM     18  N   UNL     1      45.112  35.387  15.420  1.00  0.00    -0.325 NA
ATOM     19  H   UNL     1      45.769  35.881  14.812  1.00  0.00    +0.119 HD
ATOM     20  H   UNL     1      45.402  34.410  15.452  1.00  0.00    +0.119 HD
ENDBRANCH  17  18
BRANCH  17  21
ATOM     21  C   UNL     1      46.347  35.265  17.561  1.00  0.00    +0.057 C 
BRANCH  21  22
ATOM     22  C   UNL     1      47.372  36.241  18.101  1.00  0.00    -0.046 A 
ATOM     23  C   UNL     1      46.986  37.237  19.008  1.00  0.00    +0.004 A 
ATOM     24  C   UNL     1      48.710  36.174  17.688  1.00  0.00    +0.004 A 
ATOM     25  C   UNL     1      47.925  38.146  19.500  1.00  0.00    +0.000 A 
ATOM     26  C   UNL     1      49.648  37.085  18.181  1.00  0.00    +0.000 A 
ATOM     27  C   UNL     1      49.255  38.070  19.087  1.00  0.00    +0.000 A 
ENDBRANCH  21  22
ENDBRANCH  17  21
ENDBRANCH  14  17
ENDBRANCH   2  14
TORSDOF 11
ENDMDL
MODEL 2
REMARK VINA RESULT:    -7.451      1.326      1.617
REMARK INTER + INTRA:         -12.901
REMARK INTER:                 -11.804
REMARK INTRA:                  -1.096
REMARK UNBOUND:                -1.311
REMARK SMILES CC(C)C[C@H](NC(=O)[C@@H](O)[C@H](N)Cc1ccccc1)C(=O)O
REMARK SMILES IDX 6 1 7 2 8 3 5 5 4 6 2 7 1 8 3 9 20 10 21 11 22 12 9 14 10 15
REMARK SMILES IDX 11 17 12 18 13 21 14 22 15 23 19 24 16 25 18 26 17 27
REMARK H PARENT 6 4 22 13 10 16 12 19 12 20
ROOT
ATOM      1  N   UNL     1      42.405  35.224  14.962  1.00  0.00    -0.340 N 
ATOM      2  C   UNL     1      42.865  34.245  15.825  1.00  0.00    +0.251 C 
ATOM      3  O   UNL     1      42.196  33.276  16.163  1.00  0.00    -0.272 OA
ATOM      4  H   UNL     1      43.135  35.783  14.535  1.00  0.00    +0.164 HD
ENDROOT
BRANCH   1   5
ATOM      5  C   UNL     1      41.190  35.026  14.180  1.00  0.00    +0.192 C 
BRANCH   5   6
ATOM      6  C   UNL     1      40.150  36.143  14.395  1.00  0.00    +0.040 C 
BRANCH   6   7
ATOM      7  C   UNL     1      38.882  36.213  13.509  1.00  0.00    -0.015 C 
ATOM      8  C   UNL     1      38.453  37.630  13.133  1.00  0.00    +0.007 C 
ATOM      9  C   UNL     1      37.701  35.427  14.084  1.00  0.00    +0.007 C 
ENDBRANCH   6   7
ENDBRANCH   5   6
BRANCH   5  10
ATOM     10  C   UNL     1      41.485  34.796  12.688  1.00  0.00    +0.326 C 
ATOM     11  O   UNL     1      41.238  33.782  12.052  1.00  0.00    -0.250 OA
BRANCH  10  12
ATOM     12  O   UNL     1      42.054  35.855  12.067  1.00  0.00    -0.480 OA
ATOM     13  H   UNL     1      42.288  36.457  12.803  1.00  0.00    +0.296 HD
ENDBRANCH  10  12
ENDBRANCH   5  10
ENDBRANCH   1   5
BRANCH   2  14
ATOM     14  C   UNL     1      44.301  34.515  16.321  1.00  0.00    +0.220 C 
BRANCH  14  15
ATOM     15  O   UNL     1      45.086  34.937  15.185  1.00  0.00    -0.382 OA
ATOM     16  H   UNL     1      45.913  35.302  15.547  1.00  0.00    +0.211 HD
ENDBRANCH  14  15
BRANCH  14  17
ATOM     17  C   UNL     1      44.360  35.587  17.437  1.00  0.00    +0.093 C 
BRANCH  17  18
ATOM     18  N   UNL     1      42.987  35.907  17.897  1.00  0.00    -0.325 NA
ATOM     19  H   UNL     1      42.917  36.915  18.047  1.00  0.00    +0.119 HD
ATOM     20  H   UNL     1      42.326  35.662  17.160  1.00  0.00    +0.119 HD
ENDBRANCH  17  18
BRANCH  17  21
ATOM     21  C   UNL     1      45.055  36.882  16.953  1.00  0.00    +0.057 C 
BRANCH  21  22
ATOM     22  C   UNL     1      46.429  37.076  17.559  1.00  0.00    -0.046 A 
ATOM     23  C   UNL     1      46.622  38.009  18.588  1.00  0.00    +0.004 A 
ATOM     24  C   UNL     1      47.528  36.343  17.088  1.00  0.00    +0.004 A 
ATOM     25  C   UNL     1      47.890  38.198  19.140  1.00  0.00    +0.000 A 
ATOM     26  C   UNL     1      48.796  36.535  17.642  1.00  0.00    +0.000 A 
ATOM     27  C   UNL     1      48.976  37.462  18.668  1.00  0.00    +0.000 A 
ENDBRANCH  21  22
ENDBRANCH  17  21
ENDBRANCH  14  17
ENDBRANCH   2  14
TORSDOF 11
ENDMDL
MODEL 3
REMARK VINA RESULT:    -7.365      1.790      2.435
REMARK INTER + INTRA:         -12.766
REMARK INTER:                 -12.024
REMARK INTRA:                  -0.742
REMARK UNBOUND:                -1.311
REMARK SMILES CC(C)C[C@H](NC(=O)[C@@H](O)[C@H](N)Cc1ccccc1)C(=O)O
REMARK SMILES IDX 6 1 7 2 8 3 5 5 4 6 2 7 1 8 3 9 20 10 21 11 22 12 9 14 10 15
REMARK SMILES IDX 11 17 12 18 13 21 14 22 15 23 19 24 16 25 18 26 17 27
REMARK H PARENT 6 4 22 13 10 16 12 19 12 20
ROOT
ATOM      1  N   UNL     1      41.871  34.925  14.923  1.00  0.00    -0.340 N 
ATOM      2  C   UNL     1      42.717  35.617  15.773  1.00  0.00    +0.251 C 
ATOM      3  O   UNL     1      42.350  36.553  16.474  1.00  0.00    -0.272 OA
ATOM      4  H   UNL     1      42.212  34.012  14.645  1.00  0.00    +0.164 HD
ENDROOT
BRANCH   1   5
ATOM      5  C   UNL     1      40.424  35.087  15.009  1.00  0.00    +0.192 C 
BRANCH   5   6
ATOM      6  C   UNL     1      39.784  35.479  13.663  1.00  0.00    +0.040 C 
BRANCH   6   7
ATOM      7  C   UNL     1      38.478  36.310  13.629  1.00  0.00    -0.015 C 
ATOM      8  C   UNL     1      37.201  35.474  13.565  1.00  0.00    +0.007 C 
ATOM      9  C   UNL     1      38.475  37.385  12.539  1.00  0.00    +0.007 C 
ENDBRANCH   6   7
ENDBRANCH   5   6
BRANCH   5  10
ATOM     10  C   UNL     1      39.735  33.864  15.637  1.00  0.00    +0.326 C 
ATOM     11  O   UNL     1      38.759  33.884  16.373  1.00  0.00    -0.250 OA
BRANCH  10  12
ATOM     12  O   UNL     1      40.291  32.679  15.295  1.00  0.00    -0.480 OA
ATOM     13  H   UNL     1      41.157  32.931  14.913  1.00  0.00    +0.296 HD
ENDBRANCH  10  12
ENDBRANCH   5  10
ENDBRANCH   1   5
BRANCH   2  14
ATOM     14  C   UNL     1      44.167  35.090  15.730  1.00  0.00    +0.220 C 
BRANCH  14  15
ATOM     15  O   UNL     1      44.857  35.790  14.672  1.00  0.00    -0.382 OA
ATOM     16  H   UNL     1      45.591  35.212  14.398  1.00  0.00    +0.211 HD
ENDBRANCH  14  15
BRANCH  14  17
ATOM     17  C   UNL     1      44.916  35.281  17.072  1.00  0.00    +0.093 C 
BRANCH  17  18
ATOM     18  N   UNL     1      43.976  35.087  18.202  1.00  0.00    -0.325 NA
ATOM     19  H   UNL     1      44.491  34.700  18.995  1.00  0.00    +0.119 HD
ATOM     20  H   UNL     1      43.612  35.996  18.489  1.00  0.00    +0.119 HD
ENDBRANCH  17  18
BRANCH  17  21
ATOM     21  C   UNL     1      45.562  36.683  17.174  1.00  0.00    +0.057 C 
BRANCH  21  22
ATOM     22  C   UNL     1      47.064  36.629  17.354  1.00  0.00    -0.046 A 
ATOM     23  C   UNL     1      47.683  37.395  18.352  1.00  0.00    +0.004 A 
ATOM     24  C   UNL     1      47.856  35.830  16.518  1.00  0.00    +0.004 A 
ATOM     25  C   UNL     1      49.070  37.357  18.513  1.00  0.00    +0.000 A 
ATOM     26  C   UNL     1      49.244  35.794  16.680  1.00  0.00    +0.000 A 
ATOM     27  C   UNL     1      49.850  36.557  17.678  1.00  0.00    +0.000 A 
ENDBRANCH  21  22
ENDBRANCH  17  21
ENDBRANCH  14  17
ENDBRANCH   2  14
TORSDOF 11
ENDMDL
MODEL 4
REMARK VINA RESULT:    -7.212      1.640      2.404
REMARK INTER + INTRA:         -12.529
REMARK INTER:                 -11.816
REMARK INTRA:                  -0.713
REMARK UNBOUND:                -1.311
REMARK SMILES CC(C)C[C@H](NC(=O)[C@@H](O)[C@H](N)Cc1ccccc1)C(=O)O
REMARK SMILES IDX 6 1 7 2 8 3 5 5 4 6 2 7 1 8 3 9 20 10 21 11 22 12 9 14 10 15
REMARK SMILES IDX 11 17 12 18 13 21 14 22 15 23 19 24 16 25 18 26 17 27
REMARK H PARENT 6 4 22 13 10 16 12 19 12 20
ROOT
ATOM      1  N   UNL     1      42.158  36.057  15.663  1.00  0.00    -0.340 N 
ATOM      2  C   UNL     1      42.784  35.187  16.538  1.00  0.00    +0.251 C 
ATOM      3  O   UNL     1      42.475  34.006  16.649  1.00  0.00    -0.272 OA
ATOM      4  H   UNL     1      42.691  36.893  15.450  1.00  0.00    +0.164 HD
ENDROOT
BRANCH   1   5
ATOM      5  C   UNL     1      41.271  35.563  14.616  1.00  0.00    +0.192 C 
BRANCH   5   6
ATOM      6  C   UNL     1      40.161  36.567  14.246  1.00  0.00    +0.040 C 
BRANCH   6   7
ATOM      7  C   UNL     1      38.964  36.123  13.371  1.00  0.00    -0.015 C 
ATOM      8  C   UNL     1      38.308  37.253  12.581  1.00  0.00    +0.007 C 
ATOM      9  C   UNL     1      37.912  35.326  14.147  1.00  0.00    +0.007 C 
ENDBRANCH   6   7
ENDBRANCH   5   6
BRANCH   5  10
ATOM     10  C   UNL     1      42.041  35.076  13.377  1.00  0.00    +0.326 C 
ATOM     11  O   UNL     1      42.054  33.937  12.936  1.00  0.00    -0.250 OA
BRANCH  10  12
ATOM     12  O   UNL     1      42.739  36.048  12.744  1.00  0.00    -0.480 OA
ATOM     13  H   UNL     1      42.596  35.856  11.795  1.00  0.00    +0.296 HD
ENDBRANCH  10  12
ENDBRANCH   5  10
ENDBRANCH   1   5
BRANCH   2  14
ATOM     14  C   UNL     1      43.898  35.867  17.361  1.00  0.00    +0.220 C 
BRANCH  14  15
ATOM     15  O   UNL     1      43.501  35.832  18.749  1.00  0.00    -0.382 OA
ATOM     16  H   UNL     1      43.971  36.566  19.184  1.00  0.00    +0.211 HD
ENDBRANCH  14  15
BRANCH  14  17
ATOM     17  C   UNL     1      45.277  35.186  17.184  1.00  0.00    +0.093 C 
BRANCH  17  18
ATOM     18  N   UNL     1      45.660  34.496  18.440  1.00  0.00    -0.325 NA
ATOM     19  H   UNL     1      46.606  34.124  18.335  1.00  0.00    +0.119 HD
ATOM     20  H   UNL     1      45.684  35.179  19.198  1.00  0.00    +0.119 HD
ENDBRANCH  17  18
BRANCH  17  21
ATOM     21  C   UNL     1      46.376  36.206  16.801  1.00  0.00    +0.057 C 
BRANCH  21  22
ATOM     22  C   UNL     1      47.587  35.557  16.165  1.00  0.00    -0.046 A 
ATOM     23  C   UNL     1      48.866  35.779  16.696  1.00  0.00    +0.004 A 
ATOM     24  C   UNL     1      47.451  34.746  15.030  1.00  0.00    +0.004 A 
ATOM     25  C   UNL     1      49.987  35.192  16.106  1.00  0.00    +0.000 A 
ATOM     26  C   UNL     1      48.574  34.160  14.440  1.00  0.00    +0.000 A 
ATOM     27  C   UNL     1      49.841  34.383  14.978  1.00  0.00    +0.000 A 
ENDBRANCH  21  22
ENDBRANCH  17  21
ENDBRANCH  14  17
ENDBRANCH   2  14
TORSDOF 11
ENDMDL
MODEL 5
REMARK VINA RESULT:    -7.079      2.748      4.106
REMARK INTER + INTRA:         -12.321
REMARK INTER:                 -11.518
REMARK INTRA:                  -0.803
REMARK UNBOUND:                -1.311
REMARK SMILES CC(C)C[C@H](NC(=O)[C@@H](O)[C@H](N)Cc1ccccc1)C(=O)O
REMARK SMILES IDX 6 1 7 2 8 3 5 5 4 6 2 7 1 8 3 9 20 10 21 11 22 12 9 14 10 15
REMARK SMILES IDX 11 17 12 18 13 21 14 22 15 23 19 24 16 25 18 26 17 27
REMARK H PARENT 6 4 22 13 10 16 12 19 12 20
ROOT
ATOM      1  N   UNL     1      42.034  34.270  14.986  1.00  0.00    -0.340 N 
ATOM      2  C   UNL     1      41.229  34.851  15.951  1.00  0.00    +0.251 C 
ATOM      3  O   UNL     1      40.059  34.535  16.131  1.00  0.00    -0.272 OA
ATOM      4  H   UNL     1      43.028  34.394  15.140  1.00  0.00    +0.164 HD
ENDROOT
BRANCH   1   5
ATOM      5  C   UNL     1      41.624  33.050  14.300  1.00  0.00    +0.192 C 
BRANCH   5   6
ATOM      6  C   UNL     1      42.395  32.813  12.987  1.00  0.00    +0.040 C 
BRANCH   6   7
ATOM      7  C   UNL     1      42.514  31.387  12.396  1.00  0.00    -0.015 C 
ATOM      8  C   UNL     1      43.916  30.786  12.477  1.00  0.00    +0.007 C 
ATOM      9  C   UNL     1      41.962  31.276  10.972  1.00  0.00    +0.007 C 
ENDBRANCH   6   7
ENDBRANCH   5   6
BRANCH   5  10
ATOM     10  C   UNL     1      41.665  31.819  15.220  1.00  0.00    +0.326 C 
ATOM     11  O   UNL     1      40.782  30.984  15.348  1.00  0.00    -0.250 OA
BRANCH  10  12
ATOM     12  O   UNL     1      42.818  31.688  15.916  1.00  0.00    -0.480 OA
ATOM     13  H   UNL     1      43.052  30.744  15.803  1.00  0.00    +0.296 HD
ENDBRANCH  10  12
ENDBRANCH   5  10
ENDBRANCH   1   5
BRANCH   2  14
ATOM     14  C   UNL     1      41.961  35.942  16.761  1.00  0.00    +0.220 C 
BRANCH  14  15
ATOM     15  O   UNL     1      41.260  36.105  18.011  1.00  0.00    -0.382 OA
ATOM     16  H   UNL     1      41.806  35.667  18.688  1.00  0.00    +0.211 HD
ENDBRANCH  14  15
BRANCH  14  17
ATOM     17  C   UNL     1      43.448  35.598  17.025  1.00  0.00    +0.093 C 
BRANCH  17  18
ATOM     18  N   UNL     1      43.703  35.570  18.486  1.00  0.00    -0.325 NA
ATOM     19  H   UNL     1      44.296  34.766  18.701  1.00  0.00    +0.119 HD
ATOM     20  H   UNL     1      44.222  36.409  18.747  1.00  0.00    +0.119 HD
ENDBRANCH  17  18
BRANCH  17  21
ATOM     21  C   UNL     1      44.401  36.616  16.355  1.00  0.00    +0.057 C 
BRANCH  21  22
ATOM     22  C   UNL     1      45.805  36.080  16.175  1.00  0.00    -0.046 A 
ATOM     23  C   UNL     1      46.840  36.517  17.014  1.00  0.00    +0.004 A 
ATOM     24  C   UNL     1      46.094  35.158  15.159  1.00  0.00    +0.004 A 
ATOM     25  C   UNL     1      48.139  36.034  16.844  1.00  0.00    +0.000 A 
ATOM     26  C   UNL     1      47.395  34.676  14.990  1.00  0.00    +0.000 A 
ATOM     27  C   UNL     1      48.416  35.114  15.832  1.00  0.00    +0.000 A 
ENDBRANCH  21  22
ENDBRANCH  17  21
ENDBRANCH  14  17
ENDBRANCH   2  14
TORSDOF 11
ENDMDL
MODEL 6
REMARK VINA RESULT:    -7.065      1.556      8.010
REMARK INTER + INTRA:         -12.299
REMARK INTER:                 -11.065
REMARK INTRA:                  -1.234
REMARK UNBOUND:                -1.311
REMARK SMILES CC(C)C[C@H](NC(=O)[C@@H](O)[C@H](N)Cc1ccccc1)C(=O)O
REMARK SMILES IDX 6 1 7 2 8 3 5 5 4 6 2 7 1 8 3 9 20 10 21 11 22 12 9 14 10 15
REMARK SMILES IDX 11 17 12 18 13 21 14 22 15 23 19 24 16 25 18 26 17 27
REMARK H PARENT 6 4 22 13 10 16 12 19 12 20
ROOT
ATOM      1  N   UNL     1      45.070  35.443  17.122  1.00  0.00    -0.340 N 
ATOM      2  C   UNL     1      44.621  34.922  15.921  1.00  0.00    +0.251 C 
ATOM      3  O   UNL     1      45.151  33.971  15.359  1.00  0.00    -0.272 OA
ATOM      4  H   UNL     1      44.386  36.005  17.617  1.00  0.00    +0.164 HD
ENDROOT
BRANCH   1   5
ATOM      5  C   UNL     1      46.039  34.720  17.939  1.00  0.00    +0.192 C 
BRANCH   5   6
ATOM      6  C   UNL     1      46.976  35.657  18.727  1.00  0.00    +0.040 C 
BRANCH   6   7
ATOM      7  C   UNL     1      47.615  36.886  18.036  1.00  0.00    -0.015 C 
ATOM      8  C   UNL     1      49.142  36.896  18.056  1.00  0.00    +0.007 C 
ATOM      9  C   UNL     1      47.060  38.220  18.544  1.00  0.00    +0.007 C 
ENDBRANCH   6   7
ENDBRANCH   5   6
BRANCH   5  10
ATOM     10  C   UNL     1      45.373  33.675  18.850  1.00  0.00    +0.326 C 
ATOM     11  O   UNL     1      45.753  32.528  19.029  1.00  0.00    -0.250 OA
BRANCH  10  12
ATOM     12  O   UNL     1      44.279  34.129  19.504  1.00  0.00    -0.480 OA
ATOM     13  H   UNL     1      44.342  35.103  19.415  1.00  0.00    +0.296 HD
ENDBRANCH  10  12
ENDBRANCH   5  10
ENDBRANCH   1   5
BRANCH   2  14
ATOM     14  C   UNL     1      43.395  35.677  15.365  1.00  0.00    +0.220 C 
BRANCH  14  15
ATOM     15  O   UNL     1      43.492  35.673  13.925  1.00  0.00    -0.382 OA
ATOM     16  H   UNL     1      43.282  34.765  13.641  1.00  0.00    +0.211 HD
ENDBRANCH  14  15
BRANCH  14  17
ATOM     17  C   UNL     1      42.051  35.049  15.810  1.00  0.00    +0.093 C 
BRANCH  17  18
ATOM     18  N   UNL     1      42.293  34.055  16.884  1.00  0.00    -0.325 NA
ATOM     19  H   UNL     1      43.294  34.030  17.089  1.00  0.00    +0.119 HD
ATOM     20  H   UNL     1      41.817  34.362  17.732  1.00  0.00    +0.119 HD
ENDBRANCH  17  18
BRANCH  17  21
ATOM     21  C   UNL     1      41.319  34.365  14.631  1.00  0.00    +0.057 C 
BRANCH  21  22
ATOM     22  C   UNL     1      40.106  35.139  14.160  1.00  0.00    -0.046 A 
ATOM     23  C   UNL     1      38.825  34.779  14.599  1.00  0.00    +0.004 A 
ATOM     24  C   UNL     1      40.245  36.210  13.266  1.00  0.00    +0.004 A 
ATOM     25  C   UNL     1      37.703  35.484  14.158  1.00  0.00    +0.000 A 
ATOM     26  C   UNL     1      39.121  36.913  12.825  1.00  0.00    +0.000 A 
ATOM     27  C   UNL     1      37.851  36.550  13.271  1.00  0.00    +0.000 A 
ENDBRANCH  21  22
ENDBRANCH  17  21
ENDBRANCH  14  17
ENDBRANCH   2  14
TORSDOF 11
ENDMDL
MODEL 7
REMARK VINA RESULT:    -6.782      4.621      7.476
REMARK INTER + INTRA:         -11.860
REMARK INTER:                 -10.973
REMARK INTRA:                  -0.888
REMARK UNBOUND:                -1.311
REMARK SMILES CC(C)C[C@H](NC(=O)[C@@H](O)[C@H](N)Cc1ccccc1)C(=O)O
REMARK SMILES IDX 6 1 7 2 8 3 5 5 4 6 2 7 1 8 3 9 20 10 21 11 22 12 9 14 10 15
REMARK SMILES IDX 11 17 12 18 13 21 14 22 15 23 19 24 16 25 18 26 17 27
REMARK H PARENT 6 4 22 13 10 16 12 19 12 20
ROOT
ATOM      1  N   UNL     1      41.771  33.814  14.300  1.00  0.00    -0.340 N 
ATOM      2  C   UNL     1      43.056  33.322  14.453  1.00  0.00    +0.251 C 
ATOM      3  O   UNL     1      44.058  34.025  14.389  1.00  0.00    -0.272 OA
ATOM      4  H   UNL     1      41.045  33.210  14.670  1.00  0.00    +0.164 HD
ENDROOT
BRANCH   1   5
ATOM      5  C   UNL     1      41.507  35.248  14.325  1.00  0.00    +0.192 C 
BRANCH   5   6
ATOM      6  C   UNL     1      40.444  35.680  13.296  1.00  0.00    +0.040 C 
BRANCH   6   7
ATOM      7  C   UNL     1      39.101  36.289  13.767  1.00  0.00    -0.015 C 
ATOM      8  C   UNL     1      38.038  35.258  14.141  1.00  0.00    +0.007 C 
ATOM      9  C   UNL     1      38.531  37.321  12.789  1.00  0.00    +0.007 C 
ENDBRANCH   6   7
ENDBRANCH   5   6
BRANCH   5  10
ATOM     10  C   UNL     1      41.178  35.758  15.739  1.00  0.00    +0.326 C 
ATOM     11  O   UNL     1      41.296  36.907  16.137  1.00  0.00    -0.250 OA
BRANCH  10  12
ATOM     12  O   UNL     1      40.699  34.805  16.572  1.00  0.00    -0.480 OA
ATOM     13  H   UNL     1      39.827  34.577  16.188  1.00  0.00    +0.296 HD
ENDBRANCH  10  12
ENDBRANCH   5  10
ENDBRANCH   1   5
BRANCH   2  14
ATOM     14  C   UNL     1      43.086  31.799  14.698  1.00  0.00    +0.220 C 
BRANCH  14  15
ATOM     15  O   UNL     1      43.376  31.585  16.096  1.00  0.00    -0.382 OA
ATOM     16  H   UNL     1      44.347  31.566  16.173  1.00  0.00    +0.211 HD
ENDBRANCH  14  15
BRANCH  14  17
ATOM     17  C   UNL     1      41.756  31.102  14.317  1.00  0.00    +0.093 C 
BRANCH  17  18
ATOM     18  N   UNL     1      40.870  31.033  15.504  1.00  0.00    -0.325 NA
ATOM     19  H   UNL     1      41.440  30.838  16.330  1.00  0.00    +0.119 HD
ATOM     20  H   UNL     1      40.433  31.944  15.644  1.00  0.00    +0.119 HD
ENDBRANCH  17  18
BRANCH  17  21
ATOM     21  C   UNL     1      41.992  29.676  13.767  1.00  0.00    +0.057 C 
BRANCH  21  22
ATOM     22  C   UNL     1      41.997  29.620  12.254  1.00  0.00    -0.046 A 
ATOM     23  C   UNL     1      42.002  30.806  11.505  1.00  0.00    +0.004 A 
ATOM     24  C   UNL     1      41.975  28.389  11.583  1.00  0.00    +0.004 A 
ATOM     25  C   UNL     1      41.994  30.759  10.110  1.00  0.00    +0.000 A 
ATOM     26  C   UNL     1      41.967  28.345  10.187  1.00  0.00    +0.000 A 
ATOM     27  C   UNL     1      41.976  29.529   9.451  1.00  0.00    +0.000 A 
ENDBRANCH  21  22
ENDBRANCH  17  21
ENDBRANCH  14  17
ENDBRANCH   2  14
TORSDOF 11
ENDMDL
MODEL 8
REMARK VINA RESULT:    -6.672      2.056      8.009
REMARK INTER + INTRA:         -11.689
REMARK INTER:                 -10.795
REMARK INTRA:                  -0.894
REMARK UNBOUND:                -1.311
REMARK SMILES CC(C)C[C@H](NC(=O)[C@@H](O)[C@H](N)Cc1ccccc1)C(=O)O
REMARK SMILES IDX 6 1 7 2 8 3 5 5 4 6 2 7 1 8 3 9 20 10 21 11 22 12 9 14 10 15
REMARK SMILES IDX 11 17 12 18 13 21 14 22 15 23 19 24 16 25 18 26 17 27
REMARK H PARENT 6 4 22 13 10 16 12 19 12 20
ROOT
ATOM      1  N   UNL     1      45.585  35.359  16.763  1.00  0.00    -0.340 N 
ATOM      2  C   UNL     1      44.421  36.007  16.390  1.00  0.00    +0.251 C 
ATOM      3  O   UNL     1      44.290  37.225  16.418  1.00  0.00    -0.272 OA
ATOM      4  H   UNL     1      45.668  34.411  16.413  1.00  0.00    +0.164 HD
ENDROOT
BRANCH   1   5
ATOM      5  C   UNL     1      46.829  36.097  16.953  1.00  0.00    +0.192 C 
BRANCH   5   6
ATOM      6  C   UNL     1      47.218  36.244  18.437  1.00  0.00    +0.040 C 
BRANCH   6   7
ATOM      7  C   UNL     1      47.330  37.648  19.081  1.00  0.00    -0.015 C 
ATOM      8  C   UNL     1      46.502  38.728  18.388  1.00  0.00    +0.007 C 
ATOM      9  C   UNL     1      48.778  38.113  19.265  1.00  0.00    +0.007 C 
ENDBRANCH   6   7
ENDBRANCH   5   6
BRANCH   5  10
ATOM     10  C   UNL     1      47.983  35.527  16.111  1.00  0.00    +0.326 C 
ATOM     11  O   UNL     1      49.173  35.745  16.277  1.00  0.00    -0.250 OA
BRANCH  10  12
ATOM     12  O   UNL     1      47.585  34.697  15.119  1.00  0.00    -0.480 OA
ATOM     13  H   UNL     1      48.422  34.310  14.790  1.00  0.00    +0.296 HD
ENDBRANCH  10  12
ENDBRANCH   5  10
ENDBRANCH   1   5
BRANCH   2  14
ATOM     14  C   UNL     1      43.309  35.031  15.952  1.00  0.00    +0.220 C 
BRANCH  14  15
ATOM     15  O   UNL     1      43.383  33.870  16.806  1.00  0.00    -0.382 OA
ATOM     16  H   UNL     1      42.844  33.182  16.377  1.00  0.00    +0.211 HD
ENDBRANCH  14  15
BRANCH  14  17
ATOM     17  C   UNL     1      41.895  35.658  16.027  1.00  0.00    +0.093 C 
BRANCH  17  18
ATOM     18  N   UNL     1      41.593  36.046  17.427  1.00  0.00    -0.325 NA
ATOM     19  H   UNL     1      42.443  35.950  17.985  1.00  0.00    +0.119 HD
ATOM     20  H   UNL     1      41.325  37.030  17.446  1.00  0.00    +0.119 HD
ENDBRANCH  17  18
BRANCH  17  21
ATOM     21  C   UNL     1      40.806  34.684  15.517  1.00  0.00    +0.057 C 
BRANCH  21  22
ATOM     22  C   UNL     1      39.813  35.345  14.585  1.00  0.00    -0.046 A 
ATOM     23  C   UNL     1      40.230  36.364  13.717  1.00  0.00    +0.004 A 
ATOM     24  C   UNL     1      38.464  34.963  14.590  1.00  0.00    +0.004 A 
ATOM     25  C   UNL     1      39.315  36.984  12.865  1.00  0.00    +0.000 A 
ATOM     26  C   UNL     1      37.549  35.585  13.737  1.00  0.00    +0.000 A 
ATOM     27  C   UNL     1      37.975  36.595  12.875  1.00  0.00    +0.000 A 
ENDBRANCH  21  22
ENDBRANCH  17  21
ENDBRANCH  14  17
ENDBRANCH   2  14
TORSDOF 11
ENDMDL
MODEL 9
REMARK VINA RESULT:    -6.523      4.294      7.785
REMARK INTER + INTRA:         -11.457
REMARK INTER:                 -10.157
REMARK INTRA:                  -1.300
REMARK UNBOUND:                -1.311
REMARK SMILES CC(C)C[C@H](NC(=O)[C@@H](O)[C@H](N)Cc1ccccc1)C(=O)O
REMARK SMILES IDX 6 1 7 2 8 3 5 5 4 6 2 7 1 8 3 9 20 10 21 11 22 12 9 14 10 15
REMARK SMILES IDX 11 17 12 18 13 21 14 22 15 23 19 24 16 25 18 26 17 27
REMARK H PARENT 6 4 22 13 10 16 12 19 12 20
ROOT
ATOM      1  N   UNL     1      42.156  33.888  15.409  1.00  0.00    -0.340 N 
ATOM      2  C   UNL     1      41.319  32.843  15.061  1.00  0.00    +0.251 C 
ATOM      3  O   UNL     1      40.113  32.847  15.273  1.00  0.00    -0.272 OA
ATOM      4  H   UNL     1      43.044  33.896  14.919  1.00  0.00    +0.164 HD
ENDROOT
BRANCH   1   5
ATOM      5  C   UNL     1      41.616  35.184  15.805  1.00  0.00    +0.192 C 
BRANCH   5   6
ATOM      6  C   UNL     1      42.598  36.007  16.661  1.00  0.00    +0.040 C 
BRANCH   6   7
ATOM      7  C   UNL     1      44.110  35.675  16.654  1.00  0.00    -0.015 C 
ATOM      8  C   UNL     1      44.800  35.851  18.005  1.00  0.00    +0.007 C 
ATOM      9  C   UNL     1      44.883  36.408  15.554  1.00  0.00    +0.007 C 
ENDBRANCH   6   7
ENDBRANCH   5   6
BRANCH   5  10
ATOM     10  C   UNL     1      41.086  35.988  14.605  1.00  0.00    +0.326 C 
ATOM     11  O   UNL     1      40.030  36.600  14.556  1.00  0.00    -0.250 OA
BRANCH  10  12
ATOM     12  O   UNL     1      41.918  36.001  13.538  1.00  0.00    -0.480 OA
ATOM     13  H   UNL     1      41.514  36.659  12.936  1.00  0.00    +0.296 HD
ENDBRANCH  10  12
ENDBRANCH   5  10
ENDBRANCH   1   5
BRANCH   2  14
ATOM     14  C   UNL     1      42.073  31.673  14.393  1.00  0.00    +0.220 C 
BRANCH  14  15
ATOM     15  O   UNL     1      41.236  30.501  14.488  1.00  0.00    -0.382 OA
ATOM     16  H   UNL     1      41.704  29.879  15.074  1.00  0.00    +0.211 HD
ENDBRANCH  14  15
BRANCH  14  17
ATOM     17  C   UNL     1      42.427  31.955  12.912  1.00  0.00    +0.093 C 
BRANCH  17  18
ATOM     18  N   UNL     1      41.980  33.320  12.541  1.00  0.00    -0.325 NA
ATOM     19  H   UNL     1      40.960  33.355  12.586  1.00  0.00    +0.119 HD
ATOM     20  H   UNL     1      42.339  33.983  13.228  1.00  0.00    +0.119 HD
ENDBRANCH  17  18
BRANCH  17  21
ATOM     21  C   UNL     1      41.778  30.924  11.959  1.00  0.00    +0.057 C 
BRANCH  21  22
ATOM     22  C   UNL     1      42.792  30.172  11.123  1.00  0.00    -0.046 A 
ATOM     23  C   UNL     1      44.078  29.930  11.624  1.00  0.00    +0.004 A 
ATOM     24  C   UNL     1      42.467  29.728   9.834  1.00  0.00    +0.004 A 
ATOM     25  C   UNL     1      45.020  29.248  10.852  1.00  0.00    +0.000 A 
ATOM     26  C   UNL     1      43.411  29.046   9.062  1.00  0.00    +0.000 A 
ATOM     27  C   UNL     1      44.687  28.806   9.571  1.00  0.00    +0.000 A 
ENDBRANCH  21  22
ENDBRANCH  17  21
ENDBRANCH  14  17
ENDBRANCH   2  14
TORSDOF 11
ENDMDL
