MODEL 1
REMARK VINA RESULT:    -8.092      0.000      0.000
REMARK INTER + INTRA:         -11.571
REMARK INTER:                 -10.457
REMARK INTRA:                  -1.114
REMARK UNBOUND:                -1.114
REMARK SMILES Cc1cc(N2CCN([C@H]3CN[C@H](C(=O)N4CCSC4)C3)CC2)n(-c2ccccc2)n1
REMARK SMILES IDX 5 1 6 2 7 3 8 4 21 5 22 6 4 7 2 8 3 9 30 10 23 11 1 12 24 13
REMARK SMILES IDX 25 14 29 15 26 16 28 17 27 18 9 19 10 20 20 21 11 22 12 23
REMARK SMILES IDX 13 25 14 26 15 27 16 28 19 29 17 30 18 31
REMARK H PARENT 11 24
ROOT
ATOM      1  N   UNL     1      42.602  35.419  15.608  1.00  0.00    -0.354 N 
ATOM      2  C   UNL     1      43.933  35.781  15.044  1.00  0.00    +0.133 C 
ATOM      3  C   UNL     1      44.693  36.802  15.921  1.00  0.00    +0.106 C 
ATOM      4  N   UNL     1      44.838  36.432  17.343  1.00  0.00    -0.296 NA
ATOM      5  C   UNL     1      43.726  35.587  17.819  1.00  0.00    +0.106 C 
ATOM      6  C   UNL     1      42.417  35.801  17.027  1.00  0.00    +0.133 C 
ENDROOT
BRANCH   1   7
ATOM      7  C   UNL     1      41.518  35.517  14.764  1.00  0.00    +0.132 A 
ATOM      8  C   UNL     1      39.822  36.228  13.514  1.00  0.00    +0.062 A 
ATOM      9  C   UNL     1      40.569  36.515  14.670  1.00  0.00    +0.072 A 
ATOM     10  N   UNL     1      40.225  35.096  12.930  1.00  0.00    -0.171 NA
ATOM     11  N   UNL     1      41.176  34.583  13.766  1.00  0.00    -0.217 N 
ATOM     12  C   UNL     1      38.717  37.026  12.920  1.00  0.00    +0.069 C 
BRANCH  11  13
ATOM     13  C   UNL     1      41.635  33.244  13.560  1.00  0.00    +0.067 A 
ATOM     14  C   UNL     1      41.708  32.317  14.607  1.00  0.00    +0.028 A 
ATOM     15  C   UNL     1      41.981  32.834  12.264  1.00  0.00    +0.028 A 
ATOM     16  C   UNL     1      42.159  31.017  14.370  1.00  0.00    +0.002 A 
ATOM     17  C   UNL     1      42.435  31.537  12.033  1.00  0.00    +0.002 A 
ATOM     18  C   UNL     1      42.530  30.629  13.086  1.00  0.00    +0.000 A 
ENDBRANCH  11  13
ENDBRANCH   1   7
BRANCH   4  19
ATOM     19  C   UNL     1      46.188  35.981  17.704  1.00  0.00    +0.072 C 
ATOM     20  C   UNL     1      46.852  36.693  18.890  1.00  0.00    +0.100 C 
ATOM     21  C   UNL     1      46.355  34.504  18.085  1.00  0.00    +0.049 C 
ATOM     22  N   UNL     1      48.038  35.875  19.135  1.00  0.00    -0.304 NA
ATOM     23  C   UNL     1      47.650  34.467  18.904  1.00  0.00    +0.145 C 
ATOM     24  H   UNL     1      48.432  36.022  20.062  1.00  0.00    +0.123 HD
BRANCH  23  25
ATOM     25  C   UNL     1      48.765  33.697  18.152  1.00  0.00    +0.240 C 
ATOM     26  O   UNL     1      49.794  33.309  18.713  1.00  0.00    -0.273 OA
BRANCH  25  27
ATOM     27  N   UNL     1      48.583  33.503  16.786  1.00  0.00    -0.331 N 
ATOM     28  C   UNL     1      49.079  34.505  15.855  1.00  0.00    +0.131 C 
ATOM     29  C   UNL     1      48.289  32.228  16.167  1.00  0.00    +0.189 C 
ATOM     30  C   UNL     1      48.422  34.279  14.505  1.00  0.00    +0.093 C 
ATOM     31  S   UNL     1      48.282  32.479  14.377  1.00  0.00    -0.139 SA
ENDBRANCH  25  27
ENDBRANCH  23  25
ENDBRANCH   4  19
TORSDOF 5
ENDMDL
MODEL 2
REMARK VINA RESULT:    -7.971      4.364      7.880
REMARK INTER + INTRA:         -11.415
REMARK INTER:                 -10.527
REMARK INTRA:                  -0.888
REMARK UNBOUND:                -1.114
REMARK SMILES Cc1cc(N2CCN([C@H]3CN[C@H](C(=O)N4CCSC4)C3)CC2)n(-c2ccccc2)n1
REMARK SMILES IDX 5 1 6 2 7 3 8 4 21 5 22 6 4 7 2 8 3 9 30 10 23 11 1 12 24 13
REMARK SMILES IDX 25 14 29 15 26 16 28 17 27 18 9 19 10 20 20 21 11 22 12 23
REMARK SMILES IDX 13 25 14 26 15 27 16 28 19 29 17 30 18 31
REMARK H PARENT 11 24
ROOT
ATOM      1  N   UNL     1      42.507  32.760  14.472  1.00  0.00    -0.354 N 
ATOM      2  C   UNL     1      43.502  32.266  13.479  1.00  0.00    +0.133 C 
ATOM      3  C   UNL     1      43.917  30.799  13.733  1.00  0.00    +0.106 C 
ATOM      4  N   UNL     1      42.803  29.835  13.846  1.00  0.00    -0.296 NA
ATOM      5  C   UNL     1      41.574  30.459  14.371  1.00  0.00    +0.106 C 
ATOM      6  C   UNL     1      41.849  31.693  15.260  1.00  0.00    +0.133 C 
ENDROOT
BRANCH   1   7
ATOM      7  C   UNL     1      42.794  33.949  15.106  1.00  0.00    +0.132 A 
ATOM      8  C   UNL     1      43.788  35.671  16.102  1.00  0.00    +0.062 A 
ATOM      9  C   UNL     1      43.881  34.284  15.887  1.00  0.00    +0.072 A 
ATOM     10  N   UNL     1      42.690  36.188  15.543  1.00  0.00    -0.171 NA
ATOM     11  N   UNL     1      42.005  35.116  15.044  1.00  0.00    -0.217 N 
ATOM     12  C   UNL     1      44.745  36.548  16.827  1.00  0.00    +0.069 C 
BRANCH  11  13
ATOM     13  C   UNL     1      40.659  35.296  14.599  1.00  0.00    +0.067 A 
ATOM     14  C   UNL     1      39.594  34.568  15.146  1.00  0.00    +0.028 A 
ATOM     15  C   UNL     1      40.389  36.260  13.617  1.00  0.00    +0.028 A 
ATOM     16  C   UNL     1      38.290  34.772  14.690  1.00  0.00    +0.002 A 
ATOM     17  C   UNL     1      39.086  36.456  13.160  1.00  0.00    +0.002 A 
ATOM     18  C   UNL     1      38.037  35.708  13.692  1.00  0.00    +0.000 A 
ENDBRANCH  11  13
ENDBRANCH   1   7
BRANCH   4  19
ATOM     19  C   UNL     1      42.635  28.981  12.662  1.00  0.00    +0.072 C 
ATOM     20  C   UNL     1      41.563  27.890  12.754  1.00  0.00    +0.100 C 
ATOM     21  C   UNL     1      42.271  29.677  11.343  1.00  0.00    +0.049 C 
ATOM     22  N   UNL     1      41.483  27.398  11.381  1.00  0.00    -0.304 NA
ATOM     23  C   UNL     1      41.646  28.567  10.491  1.00  0.00    +0.145 C 
ATOM     24  H   UNL     1      40.623  26.885  11.196  1.00  0.00    +0.123 HD
BRANCH  23  25
ATOM     25  C   UNL     1      42.543  28.224   9.275  1.00  0.00    +0.240 C 
ATOM     26  O   UNL     1      42.116  28.229   8.116  1.00  0.00    -0.273 OA
BRANCH  25  27
ATOM     27  N   UNL     1      43.855  27.848   9.548  1.00  0.00    -0.331 N 
ATOM     28  C   UNL     1      44.193  26.434   9.602  1.00  0.00    +0.131 C 
ATOM     29  C   UNL     1      45.005  28.717   9.411  1.00  0.00    +0.189 C 
ATOM     30  C   UNL     1      45.535  26.283  10.296  1.00  0.00    +0.093 C 
ATOM     31  S   UNL     1      46.479  27.727   9.751  1.00  0.00    -0.139 SA
ENDBRANCH  25  27
ENDBRANCH  23  25
ENDBRANCH   4  19
TORSDOF 5
ENDMDL
MODEL 3
REMARK VINA RESULT:    -7.889      4.139      7.294
REMARK INTER + INTRA:         -11.310
REMARK INTER:                 -10.239
REMARK INTRA:                  -1.070
REMARK UNBOUND:                -1.114
REMARK SMILES Cc1cc(N2CCN([C@H]3CN[C@H](C(=O)N4CCSC4)C3)CC2)n(-c2ccccc2)n1
REMARK SMILES IDX 5 1 6 2 7 3 8 4 21 5 22 6 4 7 2 8 3 9 30 10 23 11 1 12 24 13
REMARK SMILES IDX 25 14 29 15 26 16 28 17 27 18 9 19 10 20 20 21 11 22 12 23
REMARK SMILES IDX 13 25 14 26 15 27 16 28 19 29 17 30 18 31
REMARK H PARENT 11 24
ROOT
ATOM      1  N   UNL     1      41.245  33.276  13.994  1.00  0.00    -0.354 N 
ATOM      2  C   UNL     1      42.422  32.956  13.139  1.00  0.00    +0.133 C 
ATOM      3  C   UNL     1      43.549  32.243  13.922  1.00  0.00    +0.106 C 
ATOM      4  N   UNL     1      43.136  31.042  14.675  1.00  0.00    -0.296 NA
ATOM      5  C   UNL     1      41.729  31.110  15.113  1.00  0.00    +0.106 C 
ATOM      6  C   UNL     1      41.217  32.558  15.288  1.00  0.00    +0.133 C 
ENDROOT
BRANCH   1   7
ATOM      7  C   UNL     1      40.788  34.575  13.964  1.00  0.00    +0.132 A 
ATOM      8  C   UNL     1      39.578  36.426  13.721  1.00  0.00    +0.062 A 
ATOM      9  C   UNL     1      39.770  35.128  13.213  1.00  0.00    +0.072 A 
ATOM     10  N   UNL     1      40.446  36.712  14.695  1.00  0.00    -0.171 NA
ATOM     11  N   UNL     1      41.279  35.630  14.759  1.00  0.00    -0.217 N 
ATOM     12  C   UNL     1      38.558  37.425  13.308  1.00  0.00    +0.069 C 
BRANCH  11  13
ATOM     13  C   UNL     1      42.478  35.720  15.533  1.00  0.00    +0.067 A 
ATOM     14  C   UNL     1      42.466  35.623  16.931  1.00  0.00    +0.028 A 
ATOM     15  C   UNL     1      43.706  35.866  14.873  1.00  0.00    +0.028 A 
ATOM     16  C   UNL     1      43.656  35.713  17.656  1.00  0.00    +0.002 A 
ATOM     17  C   UNL     1      44.892  35.960  15.601  1.00  0.00    +0.002 A 
ATOM     18  C   UNL     1      44.867  35.889  16.993  1.00  0.00    +0.000 A 
ENDBRANCH  11  13
ENDBRANCH   1   7
BRANCH   4  19
ATOM     19  C   UNL     1      43.554  29.778  14.052  1.00  0.00    +0.072 C 
ATOM     20  C   UNL     1      43.808  28.600  15.000  1.00  0.00    +0.100 C 
ATOM     21  C   UNL     1      42.602  29.158  13.020  1.00  0.00    +0.049 C 
ATOM     22  N   UNL     1      43.962  27.474  14.083  1.00  0.00    -0.304 NA
ATOM     23  C   UNL     1      43.001  27.679  12.978  1.00  0.00    +0.145 C 
ATOM     24  H   UNL     1      43.841  26.573  14.541  1.00  0.00    +0.123 HD
BRANCH  23  25
ATOM     25  C   UNL     1      43.632  27.309  11.612  1.00  0.00    +0.240 C 
ATOM     26  O   UNL     1      44.853  27.229  11.447  1.00  0.00    -0.273 OA
BRANCH  25  27
ATOM     27  N   UNL     1      42.757  27.121  10.546  1.00  0.00    -0.331 N 
ATOM     28  C   UNL     1      41.610  26.240  10.716  1.00  0.00    +0.131 C 
ATOM     29  C   UNL     1      42.649  28.003   9.404  1.00  0.00    +0.189 C 
ATOM     30  C   UNL     1      41.063  25.889   9.343  1.00  0.00    +0.093 C 
ATOM     31  S   UNL     1      41.287  27.404   8.378  1.00  0.00    -0.139 SA
ENDBRANCH  25  27
ENDBRANCH  23  25
ENDBRANCH   4  19
TORSDOF 5
ENDMDL
MODEL 4
REMARK VINA RESULT:    -7.229      3.702      6.249
REMARK INTER + INTRA:         -10.457
REMARK INTER:                  -9.375
REMARK INTRA:                  -1.082
REMARK UNBOUND:                -1.114
REMARK SMILES Cc1cc(N2CCN([C@H]3CN[C@H](C(=O)N4CCSC4)C3)CC2)n(-c2ccccc2)n1
REMARK SMILES IDX 5 1 6 2 7 3 8 4 21 5 22 6 4 7 2 8 3 9 30 10 23 11 1 12 24 13
REMARK SMILES IDX 25 14 29 15 26 16 28 17 27 18 9 19 10 20 20 21 11 22 12 23
REMARK SMILES IDX 13 25 14 26 15 27 16 28 19 29 17 30 18 31
REMARK H PARENT 11 24
ROOT
ATOM      1  N   UNL     1      41.405  33.306  14.044  1.00  0.00    -0.354 N 
ATOM      2  C   UNL     1      42.662  33.061  13.283  1.00  0.00    +0.133 C 
ATOM      3  C   UNL     1      43.746  32.362  14.136  1.00  0.00    +0.106 C 
ATOM      4  N   UNL     1      43.319  31.119  14.809  1.00  0.00    -0.296 NA
ATOM      5  C   UNL     1      41.878  31.119  15.126  1.00  0.00    +0.106 C 
ATOM      6  C   UNL     1      41.295  32.539  15.305  1.00  0.00    +0.133 C 
ENDROOT
BRANCH   1   7
ATOM      7  C   UNL     1      40.899  34.587  14.018  1.00  0.00    +0.132 A 
ATOM      8  C   UNL     1      39.619  36.391  13.791  1.00  0.00    +0.062 A 
ATOM      9  C   UNL     1      39.849  35.099  13.284  1.00  0.00    +0.072 A 
ATOM     10  N   UNL     1      40.492  36.712  14.750  1.00  0.00    -0.171 NA
ATOM     11  N   UNL     1      41.366  35.662  14.802  1.00  0.00    -0.217 N 
ATOM     12  C   UNL     1      38.555  37.351  13.394  1.00  0.00    +0.069 C 
BRANCH  11  13
ATOM     13  C   UNL     1      42.574  35.798  15.555  1.00  0.00    +0.067 A 
ATOM     14  C   UNL     1      43.799  36.088  14.941  1.00  0.00    +0.028 A 
ATOM     15  C   UNL     1      42.523  35.682  16.951  1.00  0.00    +0.028 A 
ATOM     16  C   UNL     1      44.960  36.217  15.708  1.00  0.00    +0.002 A 
ATOM     17  C   UNL     1      43.685  35.806  17.712  1.00  0.00    +0.002 A 
ATOM     18  C   UNL     1      44.905  36.068  17.090  1.00  0.00    +0.000 A 
ENDBRANCH  11  13
ENDBRANCH   1   7
BRANCH   4  19
ATOM     19  C   UNL     1      43.839  29.896  14.183  1.00  0.00    +0.072 C 
ATOM     20  C   UNL     1      42.797  28.886  13.688  1.00  0.00    +0.100 C 
ATOM     21  C   UNL     1      44.730  30.069  12.944  1.00  0.00    +0.049 C 
ATOM     22  N   UNL     1      43.604  27.936  12.925  1.00  0.00    -0.304 NA
ATOM     23  C   UNL     1      44.650  28.715  12.229  1.00  0.00    +0.145 C 
ATOM     24  H   UNL     1      43.048  27.373  12.285  1.00  0.00    +0.123 HD
BRANCH  23  25
ATOM     25  C   UNL     1      46.013  27.981  12.269  1.00  0.00    +0.240 C 
ATOM     26  O   UNL     1      46.272  27.111  13.107  1.00  0.00    -0.273 OA
BRANCH  25  27
ATOM     27  N   UNL     1      46.972  28.385  11.344  1.00  0.00    -0.331 N 
ATOM     28  C   UNL     1      46.619  28.437   9.933  1.00  0.00    +0.131 C 
ATOM     29  C   UNL     1      48.172  29.126  11.672  1.00  0.00    +0.189 C 
ATOM     30  C   UNL     1      47.898  28.505   9.117  1.00  0.00    +0.093 C 
ATOM     31  S   UNL     1      49.009  29.523  10.120  1.00  0.00    -0.139 SA
ENDBRANCH  25  27
ENDBRANCH  23  25
ENDBRANCH   4  19
TORSDOF 5
ENDMDL
MODEL 5
REMARK VINA RESULT:    -6.311      3.439      5.647
REMARK INTER + INTRA:          -9.270
REMARK INTER:                  -8.339
REMARK INTRA:                  -0.931
REMARK UNBOUND:                -1.114
REMARK SMILES Cc1cc(N2CCN([C@H]3CN[C@H](C(=O)N4CCSC4)C3)CC2)n(-c2ccccc2)n1
REMARK SMILES IDX 5 1 6 2 7 3 8 4 21 5 22 6 4 7 2 8 3 9 30 10 23 11 1 12 24 13
REMARK SMILES IDX 25 14 29 15 26 16 28 17 27 18 9 19 10 20 20 21 11 22 12 23
REMARK SMILES IDX 13 25 14 26 15 27 16 28 19 29 17 30 18 31
REMARK H PARENT 11 24
ROOT
ATOM      1  N   UNL     1      41.672  33.176  14.415  1.00  0.00    -0.354 N 
ATOM      2  C   UNL     1      43.131  32.976  14.194  1.00  0.00    +0.133 C 
ATOM      3  C   UNL     1      43.813  32.234  15.367  1.00  0.00    +0.106 C 
ATOM      4  N   UNL     1      43.188  30.956  15.758  1.00  0.00    -0.296 NA
ATOM      5  C   UNL     1      41.738  30.935  15.487  1.00  0.00    +0.106 C 
ATOM      6  C   UNL     1      41.098  32.342  15.495  1.00  0.00    +0.133 C 
ENDROOT
BRANCH   1   7
ATOM      7  C   UNL     1      41.186  34.456  14.258  1.00  0.00    +0.132 A 
ATOM      8  C   UNL     1      39.944  36.247  13.819  1.00  0.00    +0.062 A 
ATOM      9  C   UNL     1      40.179  34.915  13.433  1.00  0.00    +0.072 A 
ATOM     10  N   UNL     1      40.775  36.639  14.788  1.00  0.00    -0.171 NA
ATOM     11  N   UNL     1      41.630  35.589  14.971  1.00  0.00    -0.217 N 
ATOM     12  C   UNL     1      38.914  37.181  13.291  1.00  0.00    +0.069 C 
BRANCH  11  13
ATOM     13  C   UNL     1      42.803  35.775  15.767  1.00  0.00    +0.067 A 
ATOM     14  C   UNL     1      44.008  36.228  15.215  1.00  0.00    +0.028 A 
ATOM     15  C   UNL     1      42.733  35.542  17.148  1.00  0.00    +0.028 A 
ATOM     16  C   UNL     1      45.134  36.402  16.023  1.00  0.00    +0.002 A 
ATOM     17  C   UNL     1      43.861  35.712  17.950  1.00  0.00    +0.002 A 
ATOM     18  C   UNL     1      45.064  36.136  17.387  1.00  0.00    +0.000 A 
ENDBRANCH  11  13
ENDBRANCH   1   7
BRANCH   4  19
ATOM     19  C   UNL     1      43.939  29.770  15.324  1.00  0.00    +0.072 C 
ATOM     20  C   UNL     1      43.760  29.346  13.861  1.00  0.00    +0.100 C 
ATOM     21  C   UNL     1      45.467  29.822  15.456  1.00  0.00    +0.049 C 
ATOM     22  N   UNL     1      44.791  28.324  13.692  1.00  0.00    -0.304 NA
ATOM     23  C   UNL     1      45.969  28.763  14.469  1.00  0.00    +0.145 C 
ATOM     24  H   UNL     1      45.013  28.147  12.715  1.00  0.00    +0.123 HD
BRANCH  23  25
ATOM     25  C   UNL     1      46.625  27.572  15.212  1.00  0.00    +0.240 C 
ATOM     26  O   UNL     1      46.107  26.452  15.253  1.00  0.00    -0.273 OA
BRANCH  25  27
ATOM     27  N   UNL     1      47.813  27.832  15.890  1.00  0.00    -0.331 N 
ATOM     28  C   UNL     1      48.921  28.444  15.172  1.00  0.00    +0.131 C 
ATOM     29  C   UNL     1      47.939  27.909  17.330  1.00  0.00    +0.189 C 
ATOM     30  C   UNL     1      50.189  28.253  15.986  1.00  0.00    +0.093 C 
ATOM     31  S   UNL     1      49.638  28.401  17.703  1.00  0.00    -0.139 SA
ENDBRANCH  25  27
ENDBRANCH  23  25
ENDBRANCH   4  19
TORSDOF 5
ENDMDL
