MODEL 1
REMARK VINA RESULT:    -8.936      0.000      0.000
REMARK INTER + INTRA:         -15.686
REMARK INTER:                 -13.899
REMARK INTRA:                  -1.787
REMARK UNBOUND:                -1.787
REMARK SMILES CS(=O)(=O)c1cccc(C(=O)NC[C@@H]2CCCN2C(=O)C[C@H](N)Cc2cccc(Cl)c2)c1
REMARK SMILES IDX 14 1 15 2 16 3 17 4 18 5 13 6 12 7 10 8 11 9 9 11 5 12 6 13
REMARK SMILES IDX 32 14 7 15 8 16 2 17 3 18 4 19 1 20 19 21 20 22 21 23 22 24
REMARK SMILES IDX 23 25 24 28 25 29 26 30 31 31 27 32 29 33 28 34 30 35
REMARK H PARENT 12 10 23 26 23 27
ROOT
ATOM      1  C   UNL     1      46.529  34.496  15.522  1.00  0.00    +0.104 C 
ATOM      2  C   UNL     1      48.063  34.569  15.620  1.00  0.00    +0.029 C 
ATOM      3  C   UNL     1      48.307  35.844  16.418  1.00  0.00    +0.024 C 
ATOM      4  C   UNL     1      47.191  35.799  17.449  1.00  0.00    +0.120 C 
ATOM      5  N   UNL     1      46.072  35.169  16.758  1.00  0.00    -0.338 N 
ENDROOT
BRANCH   1   6
ATOM      6  C   UNL     1      46.067  33.029  15.364  1.00  0.00    +0.141 C 
BRANCH   6   7
ATOM      7  N   UNL     1      45.212  32.829  14.204  1.00  0.00    -0.350 N 
ATOM      8  C   UNL     1      43.981  32.215  14.340  1.00  0.00    +0.251 C 
ATOM      9  O   UNL     1      43.440  32.001  15.419  1.00  0.00    -0.269 OA
ATOM     10  H   UNL     1      45.727  32.564  13.367  1.00  0.00    +0.163 HD
BRANCH   8  11
ATOM     11  C   UNL     1      43.354  31.740  13.077  1.00  0.00    +0.041 A 
ATOM     12  C   UNL     1      43.216  30.209  11.217  1.00  0.00    +0.067 A 
ATOM     13  C   UNL     1      42.091  30.884  10.722  1.00  0.00    +0.020 A 
ATOM     14  C   UNL     1      43.847  30.619  12.396  1.00  0.00    +0.034 A 
ATOM     15  C   UNL     1      41.619  32.010  11.394  1.00  0.00    +0.002 A 
ATOM     16  C   UNL     1      42.253  32.444  12.560  1.00  0.00    +0.014 A 
BRANCH  12  17
ATOM     17  S   UNL     1      43.829  28.802  10.327  1.00  0.00    +0.175 S 
ATOM     18  O   UNL     1      43.208  27.614  10.882  1.00  0.00    -0.224 OA
ATOM     19  O   UNL     1      43.723  29.111   8.911  1.00  0.00    -0.224 OA
ATOM     20  C   UNL     1      45.545  28.767  10.761  1.00  0.00    +0.163 C 
ENDBRANCH  12  17
ENDBRANCH   8  11
ENDBRANCH   6   7
ENDBRANCH   1   6
BRANCH   5  21
ATOM     21  C   UNL     1      44.745  35.298  17.095  1.00  0.00    +0.224 C 
ATOM     22  O   UNL     1      44.161  34.451  17.784  1.00  0.00    -0.275 OA
BRANCH  21  23
ATOM     23  C   UNL     1      43.970  36.523  16.628  1.00  0.00    +0.119 C 
BRANCH  23  24
ATOM     24  C   UNL     1      42.472  36.320  16.350  1.00  0.00    +0.064 C 
BRANCH  24  25
ATOM     25  N   UNL     1      41.755  35.936  17.590  1.00  0.00    -0.327 NA
ATOM     26  H   UNL     1      42.220  36.377  18.385  1.00  0.00    +0.119 HD
ATOM     27  H   UNL     1      40.821  36.356  17.558  1.00  0.00    +0.119 HD
ENDBRANCH  24  25
BRANCH  24  28
ATOM     28  C   UNL     1      42.177  35.358  15.174  1.00  0.00    +0.054 C 
BRANCH  28  29
ATOM     29  C   UNL     1      40.717  35.328  14.777  1.00  0.00    -0.045 A 
ATOM     30  C   UNL     1      39.840  34.379  15.341  1.00  0.00    +0.004 A 
ATOM     31  C   UNL     1      40.209  36.263  13.864  1.00  0.00    +0.024 A 
ATOM     32  C   UNL     1      38.482  34.384  15.020  1.00  0.00    +0.002 A 
ATOM     33  C   UNL     1      38.847  36.260  13.545  1.00  0.00    +0.041 A 
ATOM     34  C   UNL     1      37.985  35.329  14.122  1.00  0.00    +0.020 A 
ATOM     35 Cl   UNL     1      38.220  37.420  12.432  1.00  0.00    -0.084 Cl
ENDBRANCH  28  29
ENDBRANCH  24  28
ENDBRANCH  23  24
ENDBRANCH  21  23
ENDBRANCH   5  21
TORSDOF 10
ENDMDL
MODEL 2
REMARK VINA RESULT:    -8.603      3.312      6.125
REMARK INTER + INTRA:         -15.168
REMARK INTER:                 -13.850
REMARK INTRA:                  -1.318
REMARK UNBOUND:                -1.787
REMARK SMILES CS(=O)(=O)c1cccc(C(=O)NC[C@@H]2CCCN2C(=O)C[C@H](N)Cc2cccc(Cl)c2)c1
REMARK SMILES IDX 14 1 15 2 16 3 17 4 18 5 13 6 12 7 10 8 11 9 9 11 5 12 6 13
REMARK SMILES IDX 32 14 7 15 8 16 2 17 3 18 4 19 1 20 19 21 20 22 21 23 22 24
REMARK SMILES IDX 23 25 24 28 25 29 26 30 31 31 27 32 29 33 28 34 30 35
REMARK H PARENT 12 10 23 26 23 27
ROOT
ATOM      1  C   UNL     1      41.295  34.018  14.018  1.00  0.00    +0.104 C 
ATOM      2  C   UNL     1      40.495  35.032  13.181  1.00  0.00    +0.029 C 
ATOM      3  C   UNL     1      40.131  36.115  14.190  1.00  0.00    +0.024 C 
ATOM      4  C   UNL     1      41.394  36.212  15.031  1.00  0.00    +0.120 C 
ATOM      5  N   UNL     1      41.921  34.853  15.066  1.00  0.00    -0.338 N 
ENDROOT
BRANCH   1   6
ATOM      6  C   UNL     1      42.284  33.238  13.121  1.00  0.00    +0.141 C 
BRANCH   6   7
ATOM      7  N   UNL     1      41.788  31.923  12.746  1.00  0.00    -0.350 N 
ATOM      8  C   UNL     1      42.066  30.821  13.532  1.00  0.00    +0.251 C 
ATOM      9  O   UNL     1      42.536  30.888  14.662  1.00  0.00    -0.269 OA
ATOM     10  H   UNL     1      41.829  31.750  11.744  1.00  0.00    +0.163 HD
BRANCH   8  11
ATOM     11  C   UNL     1      41.831  29.497  12.893  1.00  0.00    +0.041 A 
ATOM     12  C   UNL     1      41.722  28.062  10.956  1.00  0.00    +0.067 A 
ATOM     13  C   UNL     1      41.413  26.961  11.768  1.00  0.00    +0.020 A 
ATOM     14  C   UNL     1      41.945  29.329  11.507  1.00  0.00    +0.034 A 
ATOM     15  C   UNL     1      41.283  27.141  13.144  1.00  0.00    +0.002 A 
ATOM     16  C   UNL     1      41.480  28.405  13.704  1.00  0.00    +0.014 A 
BRANCH  12  17
ATOM     17  S   UNL     1      41.844  27.823   9.203  1.00  0.00    +0.175 S 
ATOM     18  O   UNL     1      40.984  28.796   8.556  1.00  0.00    -0.224 OA
ATOM     19  O   UNL     1      43.258  27.739   8.879  1.00  0.00    -0.224 OA
ATOM     20  C   UNL     1      41.124  26.223   8.964  1.00  0.00    +0.163 C 
ENDBRANCH  12  17
ENDBRANCH   8  11
ENDBRANCH   6   7
ENDBRANCH   1   6
BRANCH   5  21
ATOM     21  C   UNL     1      42.766  34.345  16.025  1.00  0.00    +0.224 C 
ATOM     22  O   UNL     1      42.402  33.463  16.815  1.00  0.00    -0.275 OA
BRANCH  21  23
ATOM     23  C   UNL     1      44.196  34.861  16.112  1.00  0.00    +0.119 C 
BRANCH  23  24
ATOM     24  C   UNL     1      44.566  35.640  17.384  1.00  0.00    +0.064 C 
BRANCH  24  25
ATOM     25  N   UNL     1      43.387  35.792  18.270  1.00  0.00    -0.327 NA
ATOM     26  H   UNL     1      42.616  36.177  17.722  1.00  0.00    +0.119 HD
ATOM     27  H   UNL     1      43.077  34.855  18.547  1.00  0.00    +0.119 HD
ENDBRANCH  24  25
BRANCH  24  28
ATOM     28  C   UNL     1      45.277  36.988  17.110  1.00  0.00    +0.054 C 
BRANCH  28  29
ATOM     29  C   UNL     1      46.722  37.004  17.558  1.00  0.00    -0.045 A 
ATOM     30  C   UNL     1      47.672  36.163  16.945  1.00  0.00    +0.004 A 
ATOM     31  C   UNL     1      47.143  37.877  18.571  1.00  0.00    +0.024 A 
ATOM     32  C   UNL     1      49.016  36.214  17.317  1.00  0.00    +0.002 A 
ATOM     33  C   UNL     1      48.491  37.921  18.941  1.00  0.00    +0.041 A 
ATOM     34  C   UNL     1      49.426  37.098  18.316  1.00  0.00    +0.020 A 
ATOM     35 Cl   UNL     1      49.010  39.006  20.178  1.00  0.00    -0.084 Cl
ENDBRANCH  28  29
ENDBRANCH  24  28
ENDBRANCH  23  24
ENDBRANCH  21  23
ENDBRANCH   5  21
TORSDOF 10
ENDMDL
MODEL 3
REMARK VINA RESULT:    -8.407      3.294      6.057
REMARK INTER + INTRA:         -14.863
REMARK INTER:                 -13.582
REMARK INTRA:                  -1.281
REMARK UNBOUND:                -1.787
REMARK SMILES CS(=O)(=O)c1cccc(C(=O)NC[C@@H]2CCCN2C(=O)C[C@H](N)Cc2cccc(Cl)c2)c1
REMARK SMILES IDX 14 1 15 2 16 3 17 4 18 5 13 6 12 7 10 8 11 9 9 11 5 12 6 13
REMARK SMILES IDX 32 14 7 15 8 16 2 17 3 18 4 19 1 20 19 21 20 22 21 23 22 24
REMARK SMILES IDX 23 25 24 28 25 29 26 30 31 31 27 32 29 33 28 34 30 35
REMARK H PARENT 12 10 23 26 23 27
ROOT
ATOM      1  C   UNL     1      41.512  33.237  14.150  1.00  0.00    +0.104 C 
ATOM      2  C   UNL     1      41.595  33.741  12.698  1.00  0.00    +0.029 C 
ATOM      3  C   UNL     1      41.709  35.252  12.853  1.00  0.00    +0.024 C 
ATOM      4  C   UNL     1      42.619  35.385  14.064  1.00  0.00    +0.120 C 
ATOM      5  N   UNL     1      42.279  34.247  14.910  1.00  0.00    -0.338 N 
ENDROOT
BRANCH   1   6
ATOM      6  C   UNL     1      42.049  31.790  14.251  1.00  0.00    +0.141 C 
BRANCH   6   7
ATOM      7  N   UNL     1      42.315  31.196  12.951  1.00  0.00    -0.350 N 
ATOM      8  C   UNL     1      41.760  29.975  12.612  1.00  0.00    +0.251 C 
ATOM      9  O   UNL     1      40.871  29.429  13.252  1.00  0.00    -0.269 OA
ATOM     10  H   UNL     1      43.276  31.325  12.640  1.00  0.00    +0.163 HD
BRANCH   8  11
ATOM     11  C   UNL     1      42.367  29.296  11.435  1.00  0.00    +0.041 A 
ATOM     12  C   UNL     1      42.372  27.574   9.744  1.00  0.00    +0.067 A 
ATOM     13  C   UNL     1      43.551  28.095   9.193  1.00  0.00    +0.020 A 
ATOM     14  C   UNL     1      41.765  28.171  10.855  1.00  0.00    +0.034 A 
ATOM     15  C   UNL     1      44.154  29.201   9.787  1.00  0.00    +0.002 A 
ATOM     16  C   UNL     1      43.571  29.794  10.911  1.00  0.00    +0.014 A 
BRANCH  12  17
ATOM     17  S   UNL     1      41.640  26.140   8.998  1.00  0.00    +0.175 S 
ATOM     18  O   UNL     1      42.684  25.419   8.295  1.00  0.00    -0.224 OA
ATOM     19  O   UNL     1      40.836  25.489  10.018  1.00  0.00    -0.224 OA
ATOM     20  C   UNL     1      40.549  26.830   7.786  1.00  0.00    +0.163 C 
ENDBRANCH  12  17
ENDBRANCH   8  11
ENDBRANCH   6   7
ENDBRANCH   1   6
BRANCH   5  21
ATOM     21  C   UNL     1      42.491  34.164  16.266  1.00  0.00    +0.224 C 
ATOM     22  O   UNL     1      41.555  34.190  17.076  1.00  0.00    -0.275 OA
BRANCH  21  23
ATOM     23  C   UNL     1      43.912  34.015  16.793  1.00  0.00    +0.119 C 
BRANCH  23  24
ATOM     24  C   UNL     1      44.469  35.196  17.604  1.00  0.00    +0.064 C 
BRANCH  24  25
ATOM     25  N   UNL     1      43.402  35.822  18.421  1.00  0.00    -0.327 NA
ATOM     26  H   UNL     1      43.828  36.233  19.253  1.00  0.00    +0.119 HD
ATOM     27  H   UNL     1      43.024  36.615  17.893  1.00  0.00    +0.119 HD
ENDBRANCH  24  25
BRANCH  24  28
ATOM     28  C   UNL     1      45.246  36.230  16.753  1.00  0.00    +0.054 C 
BRANCH  28  29
ATOM     29  C   UNL     1      46.665  36.452  17.231  1.00  0.00    -0.045 A 
ATOM     30  C   UNL     1      47.745  35.812  16.590  1.00  0.00    +0.004 A 
ATOM     31  C   UNL     1      46.927  37.320  18.300  1.00  0.00    +0.024 A 
ATOM     32  C   UNL     1      49.059  36.058  16.992  1.00  0.00    +0.002 A 
ATOM     33  C   UNL     1      48.246  37.560  18.699  1.00  0.00    +0.041 A 
ATOM     34  C   UNL     1      49.309  36.936  18.047  1.00  0.00    +0.020 A 
ATOM     35 Cl   UNL     1      48.569  38.639  20.005  1.00  0.00    -0.084 Cl
ENDBRANCH  28  29
ENDBRANCH  24  28
ENDBRANCH  23  24
ENDBRANCH  21  23
ENDBRANCH   5  21
TORSDOF 10
ENDMDL
MODEL 4
REMARK VINA RESULT:    -8.406      2.560      5.619
REMARK INTER + INTRA:         -14.861
REMARK INTER:                 -13.142
REMARK INTRA:                  -1.719
REMARK UNBOUND:                -1.787
REMARK SMILES CS(=O)(=O)c1cccc(C(=O)NC[C@@H]2CCCN2C(=O)C[C@H](N)Cc2cccc(Cl)c2)c1
REMARK SMILES IDX 14 1 15 2 16 3 17 4 18 5 13 6 12 7 10 8 11 9 9 11 5 12 6 13
REMARK SMILES IDX 32 14 7 15 8 16 2 17 3 18 4 19 1 20 19 21 20 22 21 23 22 24
REMARK SMILES IDX 23 25 24 28 25 29 26 30 31 31 27 32 29 33 28 34 30 35
REMARK H PARENT 12 10 23 26 23 27
ROOT
ATOM      1  C   UNL     1      41.834  34.290  15.538  1.00  0.00    +0.104 C 
ATOM      2  C   UNL     1      40.556  33.918  14.764  1.00  0.00    +0.029 C 
ATOM      3  C   UNL     1      40.178  35.215  14.060  1.00  0.00    +0.024 C 
ATOM      4  C   UNL     1      41.534  35.765  13.645  1.00  0.00    +0.120 C 
ATOM      5  N   UNL     1      42.442  35.353  14.708  1.00  0.00    -0.338 N 
ENDROOT
BRANCH   1   6
ATOM      6  C   UNL     1      42.717  33.039  15.756  1.00  0.00    +0.141 C 
BRANCH   6   7
ATOM      7  N   UNL     1      42.628  32.089  14.659  1.00  0.00    -0.350 N 
ATOM      8  C   UNL     1      43.580  32.089  13.655  1.00  0.00    +0.251 C 
ATOM      9  O   UNL     1      44.637  32.704  13.717  1.00  0.00    -0.269 OA
ATOM     10  H   UNL     1      41.675  31.933  14.339  1.00  0.00    +0.163 HD
BRANCH   8  11
ATOM     11  C   UNL     1      43.214  31.344  12.420  1.00  0.00    +0.041 A 
ATOM     12  C   UNL     1      43.573  29.572  10.822  1.00  0.00    +0.067 A 
ATOM     13  C   UNL     1      42.435  29.966  10.104  1.00  0.00    +0.020 A 
ATOM     14  C   UNL     1      43.965  30.244  11.985  1.00  0.00    +0.034 A 
ATOM     15  C   UNL     1      41.705  31.072  10.532  1.00  0.00    +0.002 A 
ATOM     16  C   UNL     1      42.098  31.766  11.679  1.00  0.00    +0.014 A 
BRANCH  12  17
ATOM     17  S   UNL     1      44.514  28.185  10.240  1.00  0.00    +0.175 S 
ATOM     18  O   UNL     1      44.610  27.222  11.321  1.00  0.00    -0.224 OA
ATOM     19  O   UNL     1      43.968  27.809   8.947  1.00  0.00    -0.224 OA
ATOM     20  C   UNL     1      46.126  28.872   9.983  1.00  0.00    +0.163 C 
ENDBRANCH  12  17
ENDBRANCH   8  11
ENDBRANCH   6   7
ENDBRANCH   1   6
BRANCH   5  21
ATOM     21  C   UNL     1      43.639  35.955  15.020  1.00  0.00    +0.224 C 
ATOM     22  O   UNL     1      44.603  35.932  14.244  1.00  0.00    -0.275 OA
BRANCH  21  23
ATOM     23  C   UNL     1      43.783  36.689  16.347  1.00  0.00    +0.119 C 
BRANCH  23  24
ATOM     24  C   UNL     1      44.737  36.062  17.376  1.00  0.00    +0.064 C 
BRANCH  24  25
ATOM     25  N   UNL     1      43.982  35.536  18.539  1.00  0.00    -0.327 NA
ATOM     26  H   UNL     1      43.243  34.920  18.196  1.00  0.00    +0.119 HD
ATOM     27  H   UNL     1      44.610  34.930  19.075  1.00  0.00    +0.119 HD
ENDBRANCH  24  25
BRANCH  24  28
ATOM     28  C   UNL     1      45.902  36.990  17.797  1.00  0.00    +0.054 C 
BRANCH  28  29
ATOM     29  C   UNL     1      47.254  36.506  17.319  1.00  0.00    -0.045 A 
ATOM     30  C   UNL     1      48.432  36.896  17.987  1.00  0.00    +0.004 A 
ATOM     31  C   UNL     1      47.352  35.640  16.221  1.00  0.00    +0.024 A 
ATOM     32  C   UNL     1      49.676  36.408  17.583  1.00  0.00    +0.002 A 
ATOM     33  C   UNL     1      48.602  35.157  15.820  1.00  0.00    +0.041 A 
ATOM     34  C   UNL     1      49.759  35.534  16.499  1.00  0.00    +0.020 A 
ATOM     35 Cl   UNL     1      48.720  34.079  14.478  1.00  0.00    -0.084 Cl
ENDBRANCH  28  29
ENDBRANCH  24  28
ENDBRANCH  23  24
ENDBRANCH  21  23
ENDBRANCH   5  21
TORSDOF 10
ENDMDL
MODEL 5
REMARK VINA RESULT:    -8.238      4.076      8.641
REMARK INTER + INTRA:         -14.600
REMARK INTER:                 -13.836
REMARK INTRA:                  -0.764
REMARK UNBOUND:                -1.787
REMARK SMILES CS(=O)(=O)c1cccc(C(=O)NC[C@@H]2CCCN2C(=O)C[C@H](N)Cc2cccc(Cl)c2)c1
REMARK SMILES IDX 14 1 15 2 16 3 17 4 18 5 13 6 12 7 10 8 11 9 9 11 5 12 6 13
REMARK SMILES IDX 32 14 7 15 8 16 2 17 3 18 4 19 1 20 19 21 20 22 21 23 22 24
REMARK SMILES IDX 23 25 24 28 25 29 26 30 31 31 27 32 29 33 28 34 30 35
REMARK H PARENT 12 10 23 26 23 27
ROOT
ATOM      1  C   UNL     1      41.204  34.518  13.857  1.00  0.00    +0.104 C 
ATOM      2  C   UNL     1      40.406  34.775  15.148  1.00  0.00    +0.029 C 
ATOM      3  C   UNL     1      40.006  33.376  15.601  1.00  0.00    +0.024 C 
ATOM      4  C   UNL     1      41.252  32.564  15.281  1.00  0.00    +0.120 C 
ATOM      5  N   UNL     1      41.798  33.182  14.079  1.00  0.00    -0.338 N 
ENDROOT
BRANCH   1   6
ATOM      6  C   UNL     1      42.221  35.658  13.615  1.00  0.00    +0.141 C 
BRANCH   6   7
ATOM      7  N   UNL     1      43.505  35.412  14.251  1.00  0.00    -0.350 N 
ATOM      8  C   UNL     1      43.773  35.922  15.508  1.00  0.00    +0.251 C 
ATOM      9  O   UNL     1      42.922  36.408  16.243  1.00  0.00    -0.269 OA
ATOM     10  H   UNL     1      44.288  35.451  13.601  1.00  0.00    +0.163 HD
BRANCH   8  11
ATOM     11  C   UNL     1      45.206  35.924  15.910  1.00  0.00    +0.041 A 
ATOM     12  C   UNL     1      47.006  36.629  17.354  1.00  0.00    +0.067 A 
ATOM     13  C   UNL     1      47.916  35.844  16.630  1.00  0.00    +0.020 A 
ATOM     14  C   UNL     1      45.650  36.667  17.012  1.00  0.00    +0.034 A 
ATOM     15  C   UNL     1      47.470  35.124  15.524  1.00  0.00    +0.002 A 
ATOM     16  C   UNL     1      46.123  35.171  15.158  1.00  0.00    +0.014 A 
BRANCH  12  17
ATOM     17  S   UNL     1      47.600  37.571  18.735  1.00  0.00    +0.175 S 
ATOM     18  O   UNL     1      47.231  38.958  18.524  1.00  0.00    -0.224 OA
ATOM     19  O   UNL     1      47.201  36.864  19.940  1.00  0.00    -0.224 OA
ATOM     20  C   UNL     1      49.360  37.451  18.577  1.00  0.00    +0.163 C 
ENDBRANCH  12  17
ENDBRANCH   8  11
ENDBRANCH   6   7
ENDBRANCH   1   6
BRANCH   5  21
ATOM     21  C   UNL     1      42.631  32.572  13.171  1.00  0.00    +0.224 C 
ATOM     22  O   UNL     1      43.854  32.496  13.354  1.00  0.00    -0.275 OA
BRANCH  21  23
ATOM     23  C   UNL     1      42.040  31.952  11.912  1.00  0.00    +0.119 C 
BRANCH  23  24
ATOM     24  C   UNL     1      42.503  30.528  11.567  1.00  0.00    +0.064 C 
BRANCH  24  25
ATOM     25  N   UNL     1      43.853  30.266  12.120  1.00  0.00    -0.327 NA
ATOM     26  H   UNL     1      43.804  30.319  13.139  1.00  0.00    +0.119 HD
ATOM     27  H   UNL     1      44.097  29.293  11.914  1.00  0.00    +0.119 HD
ENDBRANCH  24  25
BRANCH  24  28
ATOM     28  C   UNL     1      42.405  30.184  10.060  1.00  0.00    +0.054 C 
BRANCH  28  29
ATOM     29  C   UNL     1      41.891  28.785   9.799  1.00  0.00    -0.045 A 
ATOM     30  C   UNL     1      41.531  28.385   8.496  1.00  0.00    +0.004 A 
ATOM     31  C   UNL     1      41.792  27.857  10.845  1.00  0.00    +0.024 A 
ATOM     32  C   UNL     1      41.109  27.079   8.241  1.00  0.00    +0.002 A 
ATOM     33  C   UNL     1      41.366  26.550  10.583  1.00  0.00    +0.041 A 
ATOM     34  C   UNL     1      41.030  26.160   9.288  1.00  0.00    +0.020 A 
ATOM     35 Cl   UNL     1      41.258  25.404  11.868  1.00  0.00    -0.084 Cl
ENDBRANCH  28  29
ENDBRANCH  24  28
ENDBRANCH  23  24
ENDBRANCH  21  23
ENDBRANCH   5  21
TORSDOF 10
ENDMDL
MODEL 6
REMARK VINA RESULT:    -8.216      3.154      6.886
REMARK INTER + INTRA:         -14.565
REMARK INTER:                 -12.967
REMARK INTRA:                  -1.598
REMARK UNBOUND:                -1.787
REMARK SMILES CS(=O)(=O)c1cccc(C(=O)NC[C@@H]2CCCN2C(=O)C[C@H](N)Cc2cccc(Cl)c2)c1
REMARK SMILES IDX 14 1 15 2 16 3 17 4 18 5 13 6 12 7 10 8 11 9 9 11 5 12 6 13
REMARK SMILES IDX 32 14 7 15 8 16 2 17 3 18 4 19 1 20 19 21 20 22 21 23 22 24
REMARK SMILES IDX 23 25 24 28 25 29 26 30 31 31 27 32 29 33 28 34 30 35
REMARK H PARENT 12 10 23 26 23 27
ROOT
ATOM      1  C   UNL     1      41.938  35.615  15.188  1.00  0.00    +0.104 C 
ATOM      2  C   UNL     1      40.781  36.597  14.929  1.00  0.00    +0.029 C 
ATOM      3  C   UNL     1      39.760  35.750  14.178  1.00  0.00    +0.024 C 
ATOM      4  C   UNL     1      39.861  34.412  14.892  1.00  0.00    +0.120 C 
ATOM      5  N   UNL     1      41.263  34.302  15.277  1.00  0.00    -0.338 N 
ENDROOT
BRANCH   1   6
ATOM      6  C   UNL     1      42.730  36.035  16.448  1.00  0.00    +0.141 C 
BRANCH   6   7
ATOM      7  N   UNL     1      44.094  35.533  16.450  1.00  0.00    -0.350 N 
ATOM      8  C   UNL     1      45.163  36.410  16.428  1.00  0.00    +0.251 C 
ATOM      9  O   UNL     1      45.060  37.616  16.619  1.00  0.00    -0.269 OA
ATOM     10  H   UNL     1      44.217  34.702  15.875  1.00  0.00    +0.163 HD
BRANCH   8  11
ATOM     11  C   UNL     1      46.480  35.814  16.074  1.00  0.00    +0.041 A 
ATOM     12  C   UNL     1      47.866  34.375  14.721  1.00  0.00    +0.067 A 
ATOM     13  C   UNL     1      49.004  34.765  15.441  1.00  0.00    +0.020 A 
ATOM     14  C   UNL     1      46.604  34.900  15.019  1.00  0.00    +0.034 A 
ATOM     15  C   UNL     1      48.869  35.659  16.501  1.00  0.00    +0.002 A 
ATOM     16  C   UNL     1      47.611  36.174  16.824  1.00  0.00    +0.014 A 
BRANCH  12  17
ATOM     17  S   UNL     1      48.050  33.204  13.400  1.00  0.00    +0.175 S 
ATOM     18  O   UNL     1      49.188  32.358  13.706  1.00  0.00    -0.224 OA
ATOM     19  O   UNL     1      46.738  32.633  13.147  1.00  0.00    -0.224 OA
ATOM     20  C   UNL     1      48.489  34.222  12.019  1.00  0.00    +0.163 C 
ENDBRANCH  12  17
ENDBRANCH   8  11
ENDBRANCH   6   7
ENDBRANCH   1   6
BRANCH   5  21
ATOM     21  C   UNL     1      41.933  33.131  15.541  1.00  0.00    +0.224 C 
ATOM     22  O   UNL     1      42.696  33.018  16.510  1.00  0.00    -0.275 OA
BRANCH  21  23
ATOM     23  C   UNL     1      41.723  31.928  14.631  1.00  0.00    +0.119 C 
BRANCH  23  24
ATOM     24  C   UNL     1      42.713  31.769  13.465  1.00  0.00    +0.064 C 
BRANCH  24  25
ATOM     25  N   UNL     1      43.882  32.663  13.644  1.00  0.00    -0.327 NA
ATOM     26  H   UNL     1      43.572  33.514  14.116  1.00  0.00    +0.119 HD
ATOM     27  H   UNL     1      44.527  32.212  14.301  1.00  0.00    +0.119 HD
ENDBRANCH  24  25
BRANCH  24  28
ATOM     28  C   UNL     1      42.064  31.917  12.068  1.00  0.00    +0.054 C 
BRANCH  28  29
ATOM     29  C   UNL     1      41.952  30.606  11.319  1.00  0.00    -0.045 A 
ATOM     30  C   UNL     1      42.139  30.560   9.923  1.00  0.00    +0.004 A 
ATOM     31  C   UNL     1      41.687  29.414  12.008  1.00  0.00    +0.024 A 
ATOM     32  C   UNL     1      42.091  29.345   9.237  1.00  0.00    +0.002 A 
ATOM     33  C   UNL     1      41.638  28.200  11.314  1.00  0.00    +0.041 A 
ATOM     34  C   UNL     1      41.843  28.163   9.936  1.00  0.00    +0.020 A 
ATOM     35 Cl   UNL     1      41.327  26.732  12.165  1.00  0.00    -0.084 Cl
ENDBRANCH  28  29
ENDBRANCH  24  28
ENDBRANCH  23  24
ENDBRANCH  21  23
ENDBRANCH   5  21
TORSDOF 10
ENDMDL
MODEL 7
REMARK VINA RESULT:    -8.108      3.264      5.897
REMARK INTER + INTRA:         -14.397
REMARK INTER:                 -13.239
REMARK INTRA:                  -1.158
REMARK UNBOUND:                -1.787
REMARK SMILES CS(=O)(=O)c1cccc(C(=O)NC[C@@H]2CCCN2C(=O)C[C@H](N)Cc2cccc(Cl)c2)c1
REMARK SMILES IDX 14 1 15 2 16 3 17 4 18 5 13 6 12 7 10 8 11 9 9 11 5 12 6 13
REMARK SMILES IDX 32 14 7 15 8 16 2 17 3 18 4 19 1 20 19 21 20 22 21 23 22 24
REMARK SMILES IDX 23 25 24 28 25 29 26 30 31 31 27 32 29 33 28 34 30 35
REMARK H PARENT 12 10 23 26 23 27
ROOT
ATOM      1  C   UNL     1      41.476  33.557  14.096  1.00  0.00    +0.104 C 
ATOM      2  C   UNL     1      41.600  34.000  12.627  1.00  0.00    +0.029 C 
ATOM      3  C   UNL     1      41.548  35.521  12.710  1.00  0.00    +0.024 C 
ATOM      4  C   UNL     1      42.360  35.804  13.963  1.00  0.00    +0.120 C 
ATOM      5  N   UNL     1      42.086  34.677  14.846  1.00  0.00    -0.338 N 
ENDROOT
BRANCH   1   6
ATOM      6  C   UNL     1      42.152  32.181  14.303  1.00  0.00    +0.141 C 
BRANCH   6   7
ATOM      7  N   UNL     1      42.841  31.707  13.114  1.00  0.00    -0.350 N 
ATOM      8  C   UNL     1      42.333  30.645  12.389  1.00  0.00    +0.251 C 
ATOM      9  O   UNL     1      41.209  30.184  12.548  1.00  0.00    -0.269 OA
ATOM     10  H   UNL     1      43.854  31.708  13.210  1.00  0.00    +0.163 HD
BRANCH   8  11
ATOM     11  C   UNL     1      43.274  30.015  11.423  1.00  0.00    +0.041 A 
ATOM     12  C   UNL     1      45.453  29.167  10.825  1.00  0.00    +0.067 A 
ATOM     13  C   UNL     1      44.976  28.786   9.562  1.00  0.00    +0.020 A 
ATOM     14  C   UNL     1      44.611  29.769  11.766  1.00  0.00    +0.034 A 
ATOM     15  C   UNL     1      43.651  29.051   9.222  1.00  0.00    +0.002 A 
ATOM     16  C   UNL     1      42.806  29.673  10.144  1.00  0.00    +0.014 A 
BRANCH  12  17
ATOM     17  S   UNL     1      47.153  28.858  11.225  1.00  0.00    +0.175 S 
ATOM     18  O   UNL     1      47.247  28.653  12.658  1.00  0.00    -0.224 OA
ATOM     19  O   UNL     1      47.638  27.855  10.292  1.00  0.00    -0.224 OA
ATOM     20  C   UNL     1      47.942  30.397  10.847  1.00  0.00    +0.163 C 
ENDBRANCH  12  17
ENDBRANCH   8  11
ENDBRANCH   6   7
ENDBRANCH   1   6
BRANCH   5  21
ATOM     21  C   UNL     1      42.218  34.678  16.215  1.00  0.00    +0.224 C 
ATOM     22  O   UNL     1      41.315  35.085  16.958  1.00  0.00    -0.275 OA
BRANCH  21  23
ATOM     23  C   UNL     1      43.501  34.149  16.843  1.00  0.00    +0.119 C 
BRANCH  23  24
ATOM     24  C   UNL     1      44.369  35.172  17.593  1.00  0.00    +0.064 C 
BRANCH  24  25
ATOM     25  N   UNL     1      43.568  35.893  18.611  1.00  0.00    -0.327 NA
ATOM     26  H   UNL     1      42.739  36.282  18.159  1.00  0.00    +0.119 HD
ATOM     27  H   UNL     1      43.211  35.204  19.279  1.00  0.00    +0.119 HD
ENDBRANCH  24  25
BRANCH  24  28
ATOM     28  C   UNL     1      45.148  36.134  16.664  1.00  0.00    +0.054 C 
BRANCH  28  29
ATOM     29  C   UNL     1      46.585  36.344  17.090  1.00  0.00    -0.045 A 
ATOM     30  C   UNL     1      47.635  35.689  16.415  1.00  0.00    +0.004 A 
ATOM     31  C   UNL     1      46.894  37.214  18.145  1.00  0.00    +0.024 A 
ATOM     32  C   UNL     1      48.966  35.923  16.770  1.00  0.00    +0.002 A 
ATOM     33  C   UNL     1      48.229  37.441  18.497  1.00  0.00    +0.041 A 
ATOM     34  C   UNL     1      49.261  36.803  17.811  1.00  0.00    +0.020 A 
ATOM     35 Cl   UNL     1      48.609  38.523  19.785  1.00  0.00    -0.084 Cl
ENDBRANCH  28  29
ENDBRANCH  24  28
ENDBRANCH  23  24
ENDBRANCH  21  23
ENDBRANCH   5  21
TORSDOF 10
ENDMDL
MODEL 8
REMARK VINA RESULT:    -8.005      3.938      7.832
REMARK INTER + INTRA:         -14.238
REMARK INTER:                 -12.981
REMARK INTRA:                  -1.257
REMARK UNBOUND:                -1.787
REMARK SMILES CS(=O)(=O)c1cccc(C(=O)NC[C@@H]2CCCN2C(=O)C[C@H](N)Cc2cccc(Cl)c2)c1
REMARK SMILES IDX 14 1 15 2 16 3 17 4 18 5 13 6 12 7 10 8 11 9 9 11 5 12 6 13
REMARK SMILES IDX 32 14 7 15 8 16 2 17 3 18 4 19 1 20 19 21 20 22 21 23 22 24
REMARK SMILES IDX 23 25 24 28 25 29 26 30 31 31 27 32 29 33 28 34 30 35
REMARK H PARENT 12 10 23 26 23 27
ROOT
ATOM      1  C   UNL     1      40.376  35.716  14.293  1.00  0.00    +0.104 C 
ATOM      2  C   UNL     1      39.245  36.619  13.770  1.00  0.00    +0.029 C 
ATOM      3  C   UNL     1      38.102  35.643  13.515  1.00  0.00    +0.024 C 
ATOM      4  C   UNL     1      38.224  34.689  14.692  1.00  0.00    +0.120 C 
ATOM      5  N   UNL     1      39.655  34.611  14.960  1.00  0.00    -0.338 N 
ENDROOT
BRANCH   1   6
ATOM      6  C   UNL     1      41.333  36.522  15.203  1.00  0.00    +0.141 C 
BRANCH   6   7
ATOM      7  N   UNL     1      42.699  36.027  15.164  1.00  0.00    -0.350 N 
ATOM      8  C   UNL     1      43.397  35.808  16.337  1.00  0.00    +0.251 C 
ATOM      9  O   UNL     1      42.881  35.801  17.448  1.00  0.00    -0.269 OA
ATOM     10  H   UNL     1      43.251  36.432  14.411  1.00  0.00    +0.163 HD
BRANCH   8  11
ATOM     11  C   UNL     1      44.870  35.652  16.191  1.00  0.00    +0.041 A 
ATOM     12  C   UNL     1      47.123  35.861  17.030  1.00  0.00    +0.067 A 
ATOM     13  C   UNL     1      47.632  35.288  15.855  1.00  0.00    +0.020 A 
ATOM     14  C   UNL     1      45.747  36.037  17.214  1.00  0.00    +0.034 A 
ATOM     15  C   UNL     1      46.755  34.926  14.835  1.00  0.00    +0.002 A 
ATOM     16  C   UNL     1      45.380  35.117  14.996  1.00  0.00    +0.014 A 
BRANCH  12  17
ATOM     17  S   UNL     1      48.258  36.353  18.302  1.00  0.00    +0.175 S 
ATOM     18  O   UNL     1      48.431  35.232  19.207  1.00  0.00    -0.224 OA
ATOM     19  O   UNL     1      49.398  36.968  17.644  1.00  0.00    -0.224 OA
ATOM     20  C   UNL     1      47.369  37.615  19.168  1.00  0.00    +0.163 C 
ENDBRANCH  12  17
ENDBRANCH   8  11
ENDBRANCH   6   7
ENDBRANCH   1   6
BRANCH   5  21
ATOM     21  C   UNL     1      40.296  33.580  15.607  1.00  0.00    +0.224 C 
ATOM     22  O   UNL     1      39.901  33.148  16.699  1.00  0.00    -0.275 OA
BRANCH  21  23
ATOM     23  C   UNL     1      41.514  32.935  14.962  1.00  0.00    +0.119 C 
BRANCH  23  24
ATOM     24  C   UNL     1      41.383  31.450  14.583  1.00  0.00    +0.064 C 
BRANCH  24  25
ATOM     25  N   UNL     1      40.878  30.659  15.730  1.00  0.00    -0.327 NA
ATOM     26  H   UNL     1      40.686  31.295  16.506  1.00  0.00    +0.119 HD
ATOM     27  H   UNL     1      39.965  30.272  15.470  1.00  0.00    +0.119 HD
ENDBRANCH  24  25
BRANCH  24  28
ATOM     28  C   UNL     1      42.667  30.845  13.966  1.00  0.00    +0.054 C 
BRANCH  28  29
ATOM     29  C   UNL     1      42.387  29.829  12.879  1.00  0.00    -0.045 A 
ATOM     30  C   UNL     1      42.193  28.471  13.201  1.00  0.00    +0.004 A 
ATOM     31  C   UNL     1      42.289  30.231  11.540  1.00  0.00    +0.024 A 
ATOM     32  C   UNL     1      41.880  27.541  12.208  1.00  0.00    +0.002 A 
ATOM     33  C   UNL     1      41.977  29.293  10.550  1.00  0.00    +0.041 A 
ATOM     34  C   UNL     1      41.769  27.955  10.880  1.00  0.00    +0.020 A 
ATOM     35 Cl   UNL     1      41.841  29.790   8.904  1.00  0.00    -0.084 Cl
ENDBRANCH  28  29
ENDBRANCH  24  28
ENDBRANCH  23  24
ENDBRANCH  21  23
ENDBRANCH   5  21
TORSDOF 10
ENDMDL
MODEL 9
REMARK VINA RESULT:    -7.937      4.348      7.961
REMARK INTER + INTRA:         -14.132
REMARK INTER:                 -10.757
REMARK INTRA:                  -3.375
REMARK UNBOUND:                -1.787
REMARK SMILES CS(=O)(=O)c1cccc(C(=O)NC[C@@H]2CCCN2C(=O)C[C@H](N)Cc2cccc(Cl)c2)c1
REMARK SMILES IDX 14 1 15 2 16 3 17 4 18 5 13 6 12 7 10 8 11 9 9 11 5 12 6 13
REMARK SMILES IDX 32 14 7 15 8 16 2 17 3 18 4 19 1 20 19 21 20 22 21 23 22 24
REMARK SMILES IDX 23 25 24 28 25 29 26 30 31 31 27 32 29 33 28 34 30 35
REMARK H PARENT 12 10 23 26 23 27
ROOT
ATOM      1  C   UNL     1      40.360  35.703  14.277  1.00  0.00    +0.104 C 
ATOM      2  C   UNL     1      39.239  36.611  13.741  1.00  0.00    +0.029 C 
ATOM      3  C   UNL     1      38.083  35.646  13.507  1.00  0.00    +0.024 C 
ATOM      4  C   UNL     1      38.196  34.710  14.700  1.00  0.00    +0.120 C 
ATOM      5  N   UNL     1      39.626  34.619  14.966  1.00  0.00    -0.338 N 
ENDROOT
BRANCH   1   6
ATOM      6  C   UNL     1      41.329  36.512  15.171  1.00  0.00    +0.141 C 
BRANCH   6   7
ATOM      7  N   UNL     1      42.694  36.016  15.117  1.00  0.00    -0.350 N 
ATOM      8  C   UNL     1      43.397  35.771  16.282  1.00  0.00    +0.251 C 
ATOM      9  O   UNL     1      42.885  35.742  17.395  1.00  0.00    -0.269 OA
ATOM     10  H   UNL     1      43.245  36.436  14.370  1.00  0.00    +0.163 HD
BRANCH   8  11
ATOM     11  C   UNL     1      44.869  35.616  16.127  1.00  0.00    +0.041 A 
ATOM     12  C   UNL     1      47.120  35.726  16.989  1.00  0.00    +0.067 A 
ATOM     13  C   UNL     1      47.629  35.259  15.768  1.00  0.00    +0.020 A 
ATOM     14  C   UNL     1      45.745  35.897  17.184  1.00  0.00    +0.034 A 
ATOM     15  C   UNL     1      46.752  35.001  14.716  1.00  0.00    +0.002 A 
ATOM     16  C   UNL     1      45.379  35.189  14.890  1.00  0.00    +0.014 A 
BRANCH  12  17
ATOM     17  S   UNL     1      48.254  36.088  18.305  1.00  0.00    +0.175 S 
ATOM     18  O   UNL     1      49.313  36.921  17.767  1.00  0.00    -0.224 OA
ATOM     19  O   UNL     1      47.464  36.522  19.444  1.00  0.00    -0.224 OA
ATOM     20  C   UNL     1      48.951  34.505  18.682  1.00  0.00    +0.163 C 
ENDBRANCH  12  17
ENDBRANCH   8  11
ENDBRANCH   6   7
ENDBRANCH   1   6
BRANCH   5  21
ATOM     21  C   UNL     1      40.255  33.592  15.630  1.00  0.00    +0.224 C 
ATOM     22  O   UNL     1      40.235  33.503  16.865  1.00  0.00    -0.275 OA
BRANCH  21  23
ATOM     23  C   UNL     1      40.982  32.519  14.830  1.00  0.00    +0.119 C 
BRANCH  23  24
ATOM     24  C   UNL     1      42.513  32.638  14.758  1.00  0.00    +0.064 C 
BRANCH  24  25
ATOM     25  N   UNL     1      42.932  33.272  13.485  1.00  0.00    -0.327 NA
ATOM     26  H   UNL     1      42.943  34.285  13.614  1.00  0.00    +0.119 HD
ATOM     27  H   UNL     1      43.907  33.013  13.309  1.00  0.00    +0.119 HD
ENDBRANCH  24  25
BRANCH  24  28
ATOM     28  C   UNL     1      43.258  31.308  15.030  1.00  0.00    +0.054 C 
BRANCH  28  29
ATOM     29  C   UNL     1      44.685  31.507  15.495  1.00  0.00    -0.045 A 
ATOM     30  C   UNL     1      44.958  31.921  16.814  1.00  0.00    +0.004 A 
ATOM     31  C   UNL     1      45.757  31.255  14.628  1.00  0.00    +0.024 A 
ATOM     32  C   UNL     1      46.273  32.052  17.263  1.00  0.00    +0.002 A 
ATOM     33  C   UNL     1      47.073  31.390  15.083  1.00  0.00    +0.041 A 
ATOM     34  C   UNL     1      47.332  31.782  16.395  1.00  0.00    +0.020 A 
ATOM     35 Cl   UNL     1      48.391  31.065  14.019  1.00  0.00    -0.084 Cl
ENDBRANCH  28  29
ENDBRANCH  24  28
ENDBRANCH  23  24
ENDBRANCH  21  23
ENDBRANCH   5  21
TORSDOF 10
ENDMDL
