MODEL 1
REMARK VINA RESULT:    -7.222      0.000      0.000
REMARK INTER + INTRA:         -13.879
REMARK INTER:                 -12.710
REMARK INTRA:                  -1.169
REMARK UNBOUND:                -1.169
REMARK SMILES CCCCC[C@H](CC(=O)NO)C(=O)N[C@H](C(=O)N1CCC[C@H]1CO)C(C)C
REMARK SMILES IDX 12 1 13 2 14 3 6 5 5 6 4 7 3 8 2 9 1 10 7 11 8 12 9 13 10 14
REMARK SMILES IDX 11 16 15 18 16 19 17 20 18 21 19 22 22 23 20 24 21 25 23 26
REMARK SMILES IDX 24 27 25 29 26 30 27 31
REMARK H PARENT 14 4 10 15 11 17 24 28
ROOT
ATOM      1  C   UNL     1      36.188  50.855  41.615  1.00  0.00    +0.224 C 
ATOM      2  O   UNL     1      35.814  51.756  40.870  1.00  0.00    -0.275 OA
ATOM      3  N   UNL     1      37.225  50.002  41.300  1.00  0.00    -0.344 N 
ATOM      4  H   UNL     1      37.228  49.098  41.767  1.00  0.00    +0.164 HD
ENDROOT
BRANCH   1   5
ATOM      5  C   UNL     1      35.582  50.597  42.995  1.00  0.00    +0.088 C 
BRANCH   5   6
ATOM      6  C   UNL     1      35.086  51.905  43.653  1.00  0.00    +0.014 C 
BRANCH   6   7
ATOM      7  C   UNL     1      34.911  51.846  45.176  1.00  0.00    +0.001 C 
BRANCH   7   8
ATOM      8  C   UNL     1      34.512  53.207  45.751  1.00  0.00    -0.000 C 
BRANCH   8   9
ATOM      9  C   UNL     1      34.141  53.089  47.229  1.00  0.00    -0.003 C 
ATOM     10  C   UNL     1      34.542  51.739  47.801  1.00  0.00    +0.004 C 
ENDBRANCH   8   9
ENDBRANCH   7   8
ENDBRANCH   6   7
ENDBRANCH   5   6
BRANCH   5  11
ATOM     11  C   UNL     1      36.578  49.804  43.851  1.00  0.00    +0.115 C 
BRANCH  11  12
ATOM     12  C   UNL     1      36.281  48.322  43.827  1.00  0.00    +0.244 C 
ATOM     13  O   UNL     1      36.837  47.529  43.070  1.00  0.00    -0.273 OA
ATOM     14  N   UNL     1      35.377  47.913  44.777  1.00  0.00    -0.238 N 
ATOM     15  H   UNL     1      34.682  48.540  45.172  1.00  0.00    +0.198 HD
BRANCH  14  16
ATOM     16  O   UNL     1      35.010  46.548  44.713  1.00  0.00    -0.289 OA
ATOM     17  H   UNL     1      35.877  46.102  44.562  1.00  0.00    +0.246 HD
ENDBRANCH  14  16
ENDBRANCH  11  12
ENDBRANCH   5  11
ENDBRANCH   1   5
BRANCH   3  18
ATOM     18  C   UNL     1      37.810  49.982  39.956  1.00  0.00    +0.174 C 
BRANCH  18  19
ATOM     19  C   UNL     1      37.132  48.841  39.165  1.00  0.00    +0.245 C 
ATOM     20  O   UNL     1      36.727  47.829  39.751  1.00  0.00    -0.272 OA
BRANCH  19  21
ATOM     21  N   UNL     1      37.053  48.965  37.796  1.00  0.00    -0.336 N 
ATOM     22  C   UNL     1      36.796  47.895  36.842  1.00  0.00    +0.120 C 
ATOM     23  C   UNL     1      37.480  50.194  37.120  1.00  0.00    +0.110 C 
ATOM     24  C   UNL     1      36.746  48.576  35.486  1.00  0.00    +0.024 C 
ATOM     25  C   UNL     1      37.679  49.767  35.661  1.00  0.00    +0.029 C 
BRANCH  23  26
ATOM     26  C   UNL     1      36.465  51.338  37.296  1.00  0.00    +0.181 C 
BRANCH  26  27
ATOM     27  O   UNL     1      36.531  52.279  36.226  1.00  0.00    -0.394 OA
ATOM     28  H   UNL     1      35.927  53.006  36.456  1.00  0.00    +0.210 HD
ENDBRANCH  26  27
ENDBRANCH  23  26
ENDBRANCH  19  21
ENDBRANCH  18  19
BRANCH  18  29
ATOM     29  C   UNL     1      39.344  49.789  40.000  1.00  0.00    +0.015 C 
ATOM     30  C   UNL     1      39.878  49.457  41.397  1.00  0.00    +0.010 C 
ATOM     31  C   UNL     1      40.054  51.030  39.453  1.00  0.00    +0.010 C 
ENDBRANCH  18  29
ENDBRANCH   3  18
TORSDOF 14
ENDMDL
MODEL 2
REMARK VINA RESULT:    -6.870      3.771      5.585
REMARK INTER + INTRA:         -13.261
REMARK INTER:                 -10.892
REMARK INTRA:                  -2.369
REMARK UNBOUND:                -1.169
REMARK SMILES CCCCC[C@H](CC(=O)NO)C(=O)N[C@H](C(=O)N1CCC[C@H]1CO)C(C)C
REMARK SMILES IDX 12 1 13 2 14 3 6 5 5 6 4 7 3 8 2 9 1 10 7 11 8 12 9 13 10 14
REMARK SMILES IDX 11 16 15 18 16 19 17 20 18 21 19 22 22 23 20 24 21 25 23 26
REMARK SMILES IDX 24 27 25 29 26 30 27 31
REMARK H PARENT 14 4 10 15 11 17 24 28
ROOT
ATOM      1  C   UNL     1      38.557  50.237  39.233  1.00  0.00    +0.224 C 
ATOM      2  O   UNL     1      38.628  51.462  39.211  1.00  0.00    -0.275 OA
ATOM      3  N   UNL     1      39.667  49.421  39.291  1.00  0.00    -0.344 N 
ATOM      4  H   UNL     1      39.552  48.471  38.944  1.00  0.00    +0.164 HD
ENDROOT
BRANCH   1   5
ATOM      5  C   UNL     1      37.234  49.471  39.245  1.00  0.00    +0.088 C 
BRANCH   5   6
ATOM      6  C   UNL     1      37.174  48.455  40.409  1.00  0.00    +0.014 C 
BRANCH   6   7
ATOM      7  C   UNL     1      37.000  49.068  41.805  1.00  0.00    +0.001 C 
BRANCH   7   8
ATOM      8  C   UNL     1      37.721  48.246  42.876  1.00  0.00    -0.000 C 
BRANCH   8   9
ATOM      9  C   UNL     1      36.721  47.476  43.740  1.00  0.00    -0.003 C 
ATOM     10  C   UNL     1      37.149  47.446  45.198  1.00  0.00    +0.004 C 
ENDBRANCH   8   9
ENDBRANCH   7   8
ENDBRANCH   6   7
ENDBRANCH   5   6
BRANCH   5  11
ATOM     11  C   UNL     1      36.988  48.853  37.863  1.00  0.00    +0.115 C 
BRANCH  11  12
ATOM     12  C   UNL     1      36.867  49.912  36.790  1.00  0.00    +0.244 C 
ATOM     13  O   UNL     1      37.244  49.752  35.631  1.00  0.00    -0.273 OA
ATOM     14  N   UNL     1      36.233  51.059  37.201  1.00  0.00    -0.238 N 
ATOM     15  H   UNL     1      36.211  51.350  38.173  1.00  0.00    +0.198 HD
BRANCH  14  16
ATOM     16  O   UNL     1      36.193  52.101  36.244  1.00  0.00    -0.289 OA
ATOM     17  H   UNL     1      36.923  52.692  36.543  1.00  0.00    +0.246 HD
ENDBRANCH  14  16
ENDBRANCH  11  12
ENDBRANCH   5  11
ENDBRANCH   1   5
BRANCH   3  18
ATOM     18  C   UNL     1      41.018  49.962  39.112  1.00  0.00    +0.174 C 
BRANCH  18  19
ATOM     19  C   UNL     1      41.469  49.633  37.671  1.00  0.00    +0.245 C 
ATOM     20  O   UNL     1      41.377  48.480  37.235  1.00  0.00    -0.272 OA
BRANCH  19  21
ATOM     21  N   UNL     1      42.027  50.646  36.925  1.00  0.00    -0.336 N 
ATOM     22  C   UNL     1      43.383  50.687  36.395  1.00  0.00    +0.120 C 
ATOM     23  C   UNL     1      41.362  51.946  36.792  1.00  0.00    +0.110 C 
ATOM     24  C   UNL     1      43.460  51.978  35.599  1.00  0.00    +0.024 C 
ATOM     25  C   UNL     1      42.474  52.889  36.320  1.00  0.00    +0.029 C 
BRANCH  23  26
ATOM     26  C   UNL     1      40.156  51.888  35.837  1.00  0.00    +0.181 C 
BRANCH  26  27
ATOM     27  O   UNL     1      38.967  52.387  36.448  1.00  0.00    -0.394 OA
ATOM     28  H   UNL     1      38.701  53.172  35.939  1.00  0.00    +0.210 HD
ENDBRANCH  26  27
ENDBRANCH  23  26
ENDBRANCH  19  21
ENDBRANCH  18  19
BRANCH  18  29
ATOM     29  C   UNL     1      42.010  49.384  40.148  1.00  0.00    +0.015 C 
ATOM     30  C   UNL     1      41.595  49.639  41.600  1.00  0.00    +0.010 C 
ATOM     31  C   UNL     1      43.417  49.934  39.905  1.00  0.00    +0.010 C 
ENDBRANCH  18  29
ENDBRANCH   3  18
TORSDOF 14
ENDMDL
MODEL 3
REMARK VINA RESULT:    -5.821      3.389      6.312
REMARK INTER + INTRA:         -11.414
REMARK INTER:                  -9.873
REMARK INTRA:                  -1.540
REMARK UNBOUND:                -1.169
REMARK SMILES CCCCC[C@H](CC(=O)NO)C(=O)N[C@H](C(=O)N1CCC[C@H]1CO)C(C)C
REMARK SMILES IDX 12 1 13 2 14 3 6 5 5 6 4 7 3 8 2 9 1 10 7 11 8 12 9 13 10 14
REMARK SMILES IDX 11 16 15 18 16 19 17 20 18 21 19 22 22 23 20 24 21 25 23 26
REMARK SMILES IDX 24 27 25 29 26 30 27 31
REMARK H PARENT 14 4 10 15 11 17 24 28
ROOT
ATOM      1  C   UNL     1      39.275  50.128  39.372  1.00  0.00    +0.224 C 
ATOM      2  O   UNL     1      38.918  51.272  39.105  1.00  0.00    -0.275 OA
ATOM      3  N   UNL     1      40.599  49.751  39.441  1.00  0.00    -0.344 N 
ATOM      4  H   UNL     1      40.799  48.763  39.301  1.00  0.00    +0.164 HD
ENDROOT
BRANCH   1   5
ATOM      5  C   UNL     1      38.299  48.998  39.702  1.00  0.00    +0.088 C 
BRANCH   5   6
ATOM      6  C   UNL     1      37.870  48.226  38.432  1.00  0.00    +0.014 C 
BRANCH   6   7
ATOM      7  C   UNL     1      36.712  48.853  37.645  1.00  0.00    +0.001 C 
BRANCH   7   8
ATOM      8  C   UNL     1      36.981  48.840  36.139  1.00  0.00    -0.000 C 
BRANCH   8   9
ATOM      9  C   UNL     1      38.383  49.365  35.829  1.00  0.00    -0.003 C 
ATOM     10  C   UNL     1      38.358  50.836  35.446  1.00  0.00    +0.004 C 
ENDBRANCH   8   9
ENDBRANCH   7   8
ENDBRANCH   6   7
ENDBRANCH   5   6
BRANCH   5  11
ATOM     11  C   UNL     1      37.128  49.555  40.520  1.00  0.00    +0.115 C 
BRANCH  11  12
ATOM     12  C   UNL     1      36.981  48.842  41.845  1.00  0.00    +0.244 C 
ATOM     13  O   UNL     1      37.473  49.249  42.895  1.00  0.00    -0.273 OA
ATOM     14  N   UNL     1      36.186  47.723  41.796  1.00  0.00    -0.238 N 
ATOM     15  H   UNL     1      36.046  47.192  40.943  1.00  0.00    +0.198 HD
BRANCH  14  16
ATOM     16  O   UNL     1      36.111  46.984  43.002  1.00  0.00    -0.289 OA
ATOM     17  H   UNL     1      36.144  46.052  42.681  1.00  0.00    +0.246 HD
ENDBRANCH  14  16
ENDBRANCH  11  12
ENDBRANCH   5  11
ENDBRANCH   1   5
BRANCH   3  18
ATOM     18  C   UNL     1      41.668  50.646  38.988  1.00  0.00    +0.174 C 
BRANCH  18  19
ATOM     19  C   UNL     1      41.941  50.336  37.499  1.00  0.00    +0.245 C 
ATOM     20  O   UNL     1      41.661  49.226  37.030  1.00  0.00    -0.272 OA
BRANCH  19  21
ATOM     21  N   UNL     1      42.556  51.307  36.742  1.00  0.00    -0.336 N 
ATOM     22  C   UNL     1      43.629  51.106  35.778  1.00  0.00    +0.120 C 
ATOM     23  C   UNL     1      42.350  52.732  37.022  1.00  0.00    +0.110 C 
ATOM     24  C   UNL     1      43.890  52.477  35.181  1.00  0.00    +0.024 C 
ATOM     25  C   UNL     1      43.520  53.425  36.315  1.00  0.00    +0.029 C 
BRANCH  23  26
ATOM     26  C   UNL     1      40.967  53.223  36.555  1.00  0.00    +0.181 C 
BRANCH  26  27
ATOM     27  O   UNL     1      40.984  54.604  36.199  1.00  0.00    -0.394 OA
ATOM     28  H   UNL     1      40.626  55.093  36.960  1.00  0.00    +0.210 HD
ENDBRANCH  26  27
ENDBRANCH  23  26
ENDBRANCH  19  21
ENDBRANCH  18  19
BRANCH  18  29
ATOM     29  C   UNL     1      42.952  50.479  39.833  1.00  0.00    +0.015 C 
ATOM     30  C   UNL     1      44.003  49.579  39.176  1.00  0.00    +0.010 C 
ATOM     31  C   UNL     1      42.609  49.947  41.226  1.00  0.00    +0.010 C 
ENDBRANCH  18  29
ENDBRANCH   3  18
TORSDOF 14
ENDMDL
MODEL 4
REMARK VINA RESULT:    -5.742      6.199      9.243
REMARK INTER + INTRA:         -11.274
REMARK INTER:                  -9.421
REMARK INTRA:                  -1.854
REMARK UNBOUND:                -1.169
REMARK SMILES CCCCC[C@H](CC(=O)NO)C(=O)N[C@H](C(=O)N1CCC[C@H]1CO)C(C)C
REMARK SMILES IDX 12 1 13 2 14 3 6 5 5 6 4 7 3 8 2 9 1 10 7 11 8 12 9 13 10 14
REMARK SMILES IDX 11 16 15 18 16 19 17 20 18 21 19 22 22 23 20 24 21 25 23 26
REMARK SMILES IDX 24 27 25 29 26 30 27 31
REMARK H PARENT 14 4 10 15 11 17 24 28
ROOT
ATOM      1  C   UNL     1      42.177  49.689  38.036  1.00  0.00    +0.224 C 
ATOM      2  O   UNL     1      41.761  48.993  38.958  1.00  0.00    -0.275 OA
ATOM      3  N   UNL     1      43.301  50.480  38.140  1.00  0.00    -0.344 N 
ATOM      4  H   UNL     1      43.363  51.270  37.502  1.00  0.00    +0.164 HD
ENDROOT
BRANCH   1   5
ATOM      5  C   UNL     1      41.526  49.731  36.653  1.00  0.00    +0.088 C 
BRANCH   5   6
ATOM      6  C   UNL     1      42.383  50.529  35.644  1.00  0.00    +0.014 C 
BRANCH   6   7
ATOM      7  C   UNL     1      42.230  50.107  34.177  1.00  0.00    +0.001 C 
BRANCH   7   8
ATOM      8  C   UNL     1      43.199  50.865  33.267  1.00  0.00    -0.000 C 
BRANCH   8   9
ATOM      9  C   UNL     1      43.733  52.119  33.961  1.00  0.00    -0.003 C 
ATOM     10  C   UNL     1      45.240  52.055  34.151  1.00  0.00    +0.004 C 
ENDBRANCH   8   9
ENDBRANCH   7   8
ENDBRANCH   6   7
ENDBRANCH   5   6
BRANCH   5  11
ATOM     11  C   UNL     1      40.082  50.232  36.782  1.00  0.00    +0.115 C 
BRANCH  11  12
ATOM     12  C   UNL     1      39.083  49.109  36.617  1.00  0.00    +0.244 C 
ATOM     13  O   UNL     1      38.123  49.160  35.851  1.00  0.00    -0.273 OA
ATOM     14  N   UNL     1      39.374  47.985  37.350  1.00  0.00    -0.238 N 
ATOM     15  H   UNL     1      39.929  48.018  38.200  1.00  0.00    +0.198 HD
BRANCH  14  16
ATOM     16  O   UNL     1      38.403  46.956  37.288  1.00  0.00    -0.289 OA
ATOM     17  H   UNL     1      37.575  47.431  37.534  1.00  0.00    +0.246 HD
ENDBRANCH  14  16
ENDBRANCH  11  12
ENDBRANCH   5  11
ENDBRANCH   1   5
BRANCH   3  18
ATOM     18  C   UNL     1      43.954  50.705  39.434  1.00  0.00    +0.174 C 
BRANCH  18  19
ATOM     19  C   UNL     1      43.717  52.180  39.829  1.00  0.00    +0.245 C 
ATOM     20  O   UNL     1      43.743  52.520  41.018  1.00  0.00    -0.272 OA
BRANCH  19  21
ATOM     21  N   UNL     1      43.419  53.075  38.827  1.00  0.00    -0.336 N 
ATOM     22  C   UNL     1      44.317  53.529  37.774  1.00  0.00    +0.120 C 
ATOM     23  C   UNL     1      42.193  53.879  38.868  1.00  0.00    +0.110 C 
ATOM     24  C   UNL     1      43.478  54.448  36.905  1.00  0.00    +0.024 C 
ATOM     25  C   UNL     1      42.466  55.025  37.887  1.00  0.00    +0.029 C 
BRANCH  23  26
ATOM     26  C   UNL     1      40.943  53.052  38.520  1.00  0.00    +0.181 C 
BRANCH  26  27
ATOM     27  O   UNL     1      40.149  52.775  39.672  1.00  0.00    -0.394 OA
ATOM     28  H   UNL     1      39.776  51.885  39.547  1.00  0.00    +0.210 HD
ENDBRANCH  26  27
ENDBRANCH  23  26
ENDBRANCH  19  21
ENDBRANCH  18  19
BRANCH  18  29
ATOM     29  C   UNL     1      45.466  50.383  39.377  1.00  0.00    +0.015 C 
ATOM     30  C   UNL     1      46.060  50.484  37.969  1.00  0.00    +0.010 C 
ATOM     31  C   UNL     1      45.738  48.994  39.959  1.00  0.00    +0.010 C 
ENDBRANCH  18  29
ENDBRANCH   3  18
TORSDOF 14
ENDMDL
MODEL 5
REMARK VINA RESULT:    -5.654      4.803      8.824
REMARK INTER + INTRA:         -11.120
REMARK INTER:                  -9.418
REMARK INTRA:                  -1.702
REMARK UNBOUND:                -1.169
REMARK SMILES CCCCC[C@H](CC(=O)NO)C(=O)N[C@H](C(=O)N1CCC[C@H]1CO)C(C)C
REMARK SMILES IDX 12 1 13 2 14 3 6 5 5 6 4 7 3 8 2 9 1 10 7 11 8 12 9 13 10 14
REMARK SMILES IDX 11 16 15 18 16 19 17 20 18 21 19 22 22 23 20 24 21 25 23 26
REMARK SMILES IDX 24 27 25 29 26 30 27 31
REMARK H PARENT 14 4 10 15 11 17 24 28
ROOT
ATOM      1  C   UNL     1      40.070  51.592  37.165  1.00  0.00    +0.224 C 
ATOM      2  O   UNL     1      39.616  52.733  37.165  1.00  0.00    -0.275 OA
ATOM      3  N   UNL     1      40.469  50.941  38.313  1.00  0.00    -0.344 N 
ATOM      4  H   UNL     1      41.145  50.190  38.198  1.00  0.00    +0.164 HD
ENDROOT
BRANCH   1   5
ATOM      5  C   UNL     1      40.205  50.741  35.901  1.00  0.00    +0.088 C 
BRANCH   5   6
ATOM      6  C   UNL     1      41.460  51.128  35.085  1.00  0.00    +0.014 C 
BRANCH   6   7
ATOM      7  C   UNL     1      41.955  50.061  34.100  1.00  0.00    +0.001 C 
BRANCH   7   8
ATOM      8  C   UNL     1      43.133  50.568  33.264  1.00  0.00    -0.000 C 
BRANCH   8   9
ATOM      9  C   UNL     1      43.531  51.984  33.682  1.00  0.00    -0.003 C 
ATOM     10  C   UNL     1      45.041  52.152  33.720  1.00  0.00    +0.004 C 
ENDBRANCH   8   9
ENDBRANCH   7   8
ENDBRANCH   6   7
ENDBRANCH   5   6
BRANCH   5  11
ATOM     11  C   UNL     1      38.897  50.801  35.102  1.00  0.00    +0.115 C 
BRANCH  11  12
ATOM     12  C   UNL     1      37.691  50.563  35.983  1.00  0.00    +0.244 C 
ATOM     13  O   UNL     1      37.468  49.499  36.557  1.00  0.00    -0.273 OA
ATOM     14  N   UNL     1      36.889  51.666  36.149  1.00  0.00    -0.238 N 
ATOM     15  H   UNL     1      36.850  52.417  35.468  1.00  0.00    +0.198 HD
BRANCH  14  16
ATOM     16  O   UNL     1      35.704  51.443  36.891  1.00  0.00    -0.289 OA
ATOM     17  H   UNL     1      35.420  52.359  37.117  1.00  0.00    +0.246 HD
ENDBRANCH  14  16
ENDBRANCH  11  12
ENDBRANCH   5  11
ENDBRANCH   1   5
BRANCH   3  18
ATOM     18  C   UNL     1      40.577  51.653  39.590  1.00  0.00    +0.174 C 
BRANCH  18  19
ATOM     19  C   UNL     1      42.057  52.056  39.779  1.00  0.00    +0.245 C 
ATOM     20  O   UNL     1      42.405  52.712  40.768  1.00  0.00    -0.272 OA
BRANCH  19  21
ATOM     21  N   UNL     1      42.949  51.714  38.787  1.00  0.00    -0.336 N 
ATOM     22  C   UNL     1      43.372  50.367  38.427  1.00  0.00    +0.120 C 
ATOM     23  C   UNL     1      43.781  52.729  38.132  1.00  0.00    +0.110 C 
ATOM     24  C   UNL     1      44.301  50.547  37.240  1.00  0.00    +0.024 C 
ATOM     25  C   UNL     1      44.910  51.923  37.482  1.00  0.00    +0.029 C 
BRANCH  23  26
ATOM     26  C   UNL     1      42.978  53.584  37.135  1.00  0.00    +0.181 C 
BRANCH  26  27
ATOM     27  O   UNL     1      42.109  54.501  37.798  1.00  0.00    -0.394 OA
ATOM     28  H   UNL     1      42.544  54.745  38.632  1.00  0.00    +0.210 HD
ENDBRANCH  26  27
ENDBRANCH  23  26
ENDBRANCH  19  21
ENDBRANCH  18  19
BRANCH  18  29
ATOM     29  C   UNL     1      40.084  50.787  40.772  1.00  0.00    +0.015 C 
ATOM     30  C   UNL     1      41.033  49.638  41.126  1.00  0.00    +0.010 C 
ATOM     31  C   UNL     1      38.685  50.237  40.484  1.00  0.00    +0.010 C 
ENDBRANCH  18  29
ENDBRANCH   3  18
TORSDOF 14
ENDMDL
MODEL 6
REMARK VINA RESULT:    -5.544      4.181      8.002
REMARK INTER + INTRA:         -10.927
REMARK INTER:                  -9.511
REMARK INTRA:                  -1.417
REMARK UNBOUND:                -1.169
REMARK SMILES CCCCC[C@H](CC(=O)NO)C(=O)N[C@H](C(=O)N1CCC[C@H]1CO)C(C)C
REMARK SMILES IDX 12 1 13 2 14 3 6 5 5 6 4 7 3 8 2 9 1 10 7 11 8 12 9 13 10 14
REMARK SMILES IDX 11 16 15 18 16 19 17 20 18 21 19 22 22 23 20 24 21 25 23 26
REMARK SMILES IDX 24 27 25 29 26 30 27 31
REMARK H PARENT 14 4 10 15 11 17 24 28
ROOT
ATOM      1  C   UNL     1      39.239  50.731  37.985  1.00  0.00    +0.224 C 
ATOM      2  O   UNL     1      38.761  51.858  37.896  1.00  0.00    -0.275 OA
ATOM      3  N   UNL     1      39.315  50.038  39.175  1.00  0.00    -0.344 N 
ATOM      4  H   UNL     1      40.024  49.311  39.234  1.00  0.00    +0.164 HD
ENDROOT
BRANCH   1   5
ATOM      5  C   UNL     1      39.766  49.944  36.785  1.00  0.00    +0.088 C 
BRANCH   5   6
ATOM      6  C   UNL     1      41.216  50.348  36.430  1.00  0.00    +0.014 C 
BRANCH   6   7
ATOM      7  C   UNL     1      41.660  50.007  35.002  1.00  0.00    +0.001 C 
BRANCH   7   8
ATOM      8  C   UNL     1      42.784  50.930  34.525  1.00  0.00    -0.000 C 
BRANCH   8   9
ATOM      9  C   UNL     1      43.424  51.666  35.702  1.00  0.00    -0.003 C 
ATOM     10  C   UNL     1      44.767  51.061  36.078  1.00  0.00    +0.004 C 
ENDBRANCH   8   9
ENDBRANCH   7   8
ENDBRANCH   6   7
ENDBRANCH   5   6
BRANCH   5  11
ATOM     11  C   UNL     1      38.779  50.069  35.618  1.00  0.00    +0.115 C 
BRANCH  11  12
ATOM     12  C   UNL     1      37.435  49.463  35.954  1.00  0.00    +0.244 C 
ATOM     13  O   UNL     1      37.244  48.255  36.074  1.00  0.00    -0.273 OA
ATOM     14  N   UNL     1      36.444  50.386  36.187  1.00  0.00    -0.238 N 
ATOM     15  H   UNL     1      36.468  51.321  35.792  1.00  0.00    +0.198 HD
BRANCH  14  16
ATOM     16  O   UNL     1      35.156  49.843  36.409  1.00  0.00    -0.289 OA
ATOM     17  H   UNL     1      34.669  50.606  36.802  1.00  0.00    +0.246 HD
ENDBRANCH  14  16
ENDBRANCH  11  12
ENDBRANCH   5  11
ENDBRANCH   1   5
BRANCH   3  18
ATOM     18  C   UNL     1      39.022  50.692  40.454  1.00  0.00    +0.174 C 
BRANCH  18  19
ATOM     19  C   UNL     1      40.367  51.134  41.074  1.00  0.00    +0.245 C 
ATOM     20  O   UNL     1      40.385  51.854  42.079  1.00  0.00    -0.272 OA
BRANCH  19  21
ATOM     21  N   UNL     1      41.526  50.753  40.436  1.00  0.00    -0.336 N 
ATOM     22  C   UNL     1      41.966  49.388  40.178  1.00  0.00    +0.120 C 
ATOM     23  C   UNL     1      42.594  51.720  40.161  1.00  0.00    +0.110 C 
ATOM     24  C   UNL     1      43.259  49.529  39.396  1.00  0.00    +0.024 C 
ATOM     25  C   UNL     1      43.828  50.849  39.902  1.00  0.00    +0.029 C 
BRANCH  23  26
ATOM     26  C   UNL     1      42.242  52.657  38.991  1.00  0.00    +0.181 C 
BRANCH  26  27
ATOM     27  O   UNL     1      41.077  53.435  39.263  1.00  0.00    -0.394 OA
ATOM     28  H   UNL     1      41.062  53.589  40.223  1.00  0.00    +0.210 HD
ENDBRANCH  26  27
ENDBRANCH  23  26
ENDBRANCH  19  21
ENDBRANCH  18  19
BRANCH  18  29
ATOM     29  C   UNL     1      38.252  49.756  41.414  1.00  0.00    +0.015 C 
ATOM     30  C   UNL     1      39.148  49.072  42.450  1.00  0.00    +0.010 C 
ATOM     31  C   UNL     1      37.474  48.702  40.621  1.00  0.00    +0.010 C 
ENDBRANCH  18  29
ENDBRANCH   3  18
TORSDOF 14
ENDMDL
MODEL 7
REMARK VINA RESULT:    -5.195      2.622      7.889
REMARK INTER + INTRA:         -10.312
REMARK INTER:                  -9.023
REMARK INTRA:                  -1.289
REMARK UNBOUND:                -1.169
REMARK SMILES CCCCC[C@H](CC(=O)NO)C(=O)N[C@H](C(=O)N1CCC[C@H]1CO)C(C)C
REMARK SMILES IDX 12 1 13 2 14 3 6 5 5 6 4 7 3 8 2 9 1 10 7 11 8 12 9 13 10 14
REMARK SMILES IDX 11 16 15 18 16 19 17 20 18 21 19 22 22 23 20 24 21 25 23 26
REMARK SMILES IDX 24 27 25 29 26 30 27 31
REMARK H PARENT 14 4 10 15 11 17 24 28
ROOT
ATOM      1  C   UNL     1      39.199  49.853  39.033  1.00  0.00    +0.224 C 
ATOM      2  O   UNL     1      38.976  48.688  39.351  1.00  0.00    -0.275 OA
ATOM      3  N   UNL     1      39.531  50.831  39.947  1.00  0.00    -0.344 N 
ATOM      4  H   UNL     1      39.340  51.792  39.675  1.00  0.00    +0.164 HD
ENDROOT
BRANCH   1   5
ATOM      5  C   UNL     1      39.179  50.350  37.587  1.00  0.00    +0.088 C 
BRANCH   5   6
ATOM      6  C   UNL     1      40.597  50.715  37.091  1.00  0.00    +0.014 C 
BRANCH   6   7
ATOM      7  C   UNL     1      40.735  52.113  36.473  1.00  0.00    +0.001 C 
BRANCH   7   8
ATOM      8  C   UNL     1      41.747  52.125  35.326  1.00  0.00    -0.000 C 
BRANCH   8   9
ATOM      9  C   UNL     1      42.469  50.782  35.218  1.00  0.00    -0.003 C 
ATOM     10  C   UNL     1      42.434  50.240  33.799  1.00  0.00    +0.004 C 
ENDBRANCH   8   9
ENDBRANCH   7   8
ENDBRANCH   6   7
ENDBRANCH   5   6
BRANCH   5  11
ATOM     11  C   UNL     1      38.156  51.485  37.450  1.00  0.00    +0.115 C 
BRANCH  11  12
ATOM     12  C   UNL     1      36.892  51.019  36.765  1.00  0.00    +0.244 C 
ATOM     13  O   UNL     1      36.866  50.135  35.911  1.00  0.00    -0.273 OA
ATOM     14  N   UNL     1      35.747  51.622  37.226  1.00  0.00    -0.238 N 
ATOM     15  H   UNL     1      35.752  52.540  37.660  1.00  0.00    +0.198 HD
BRANCH  14  16
ATOM     16  O   UNL     1      34.562  51.274  36.535  1.00  0.00    -0.289 OA
ATOM     17  H   UNL     1      34.295  52.130  36.127  1.00  0.00    +0.246 HD
ENDBRANCH  14  16
ENDBRANCH  11  12
ENDBRANCH   5  11
ENDBRANCH   1   5
BRANCH   3  18
ATOM     18  C   UNL     1      39.429  50.587  41.390  1.00  0.00    +0.174 C 
BRANCH  18  19
ATOM     19  C   UNL     1      37.943  50.737  41.788  1.00  0.00    +0.245 C 
ATOM     20  O   UNL     1      37.272  51.681  41.354  1.00  0.00    -0.272 OA
BRANCH  19  21
ATOM     21  N   UNL     1      37.421  49.828  42.679  1.00  0.00    -0.336 N 
ATOM     22  C   UNL     1      37.874  48.459  42.889  1.00  0.00    +0.120 C 
ATOM     23  C   UNL     1      36.147  50.079  43.360  1.00  0.00    +0.110 C 
ATOM     24  C   UNL     1      37.012  47.924  44.018  1.00  0.00    +0.024 C 
ATOM     25  C   UNL     1      35.709  48.696  43.856  1.00  0.00    +0.029 C 
BRANCH  23  26
ATOM     26  C   UNL     1      36.283  51.123  44.483  1.00  0.00    +0.181 C 
BRANCH  26  27
ATOM     27  O   UNL     1      35.027  51.420  45.091  1.00  0.00    -0.394 OA
ATOM     28  H   UNL     1      34.496  50.607  45.045  1.00  0.00    +0.210 HD
ENDBRANCH  26  27
ENDBRANCH  23  26
ENDBRANCH  19  21
ENDBRANCH  18  19
BRANCH  18  29
ATOM     29  C   UNL     1      40.319  51.558  42.199  1.00  0.00    +0.015 C 
ATOM     30  C   UNL     1      39.892  51.703  43.663  1.00  0.00    +0.010 C 
ATOM     31  C   UNL     1      40.355  52.934  41.529  1.00  0.00    +0.010 C 
ENDBRANCH  18  29
ENDBRANCH   3  18
TORSDOF 14
ENDMDL
