MODEL 1
REMARK VINA RESULT:    -8.142      0.000      0.000
REMARK INTER + INTRA:         -12.280
REMARK INTER:                 -11.473
REMARK INTRA:                  -0.807
REMARK UNBOUND:                -0.807
REMARK SMILES Cc1cc2ncc(C(=O)NCC(C)(C)NCC(=O)N3CCC[C@H]3C#N)cn2n1
REMARK SMILES IDX 12 1 13 2 14 3 11 4 10 5 8 6 9 7 7 9 2 10 3 11 28 12 4 13
REMARK SMILES IDX 27 14 5 15 26 16 6 17 1 18 15 19 16 21 17 22 18 23 19 24
REMARK SMILES IDX 20 25 23 26 21 27 22 28 24 29 25 30
REMARK H PARENT 10 8 15 20
ROOT
ATOM      1  C   UNL     1      41.096  35.476  14.660  1.00  0.00    +0.030 C 
ATOM      2  C   UNL     1      40.056  36.518  14.213  1.00  0.00    +0.030 C 
ATOM      3  C   UNL     1      40.337  34.233  15.172  1.00  0.00    +0.030 C 
ENDROOT
BRANCH   1   4
ATOM      4  C   UNL     1      42.044  35.063  13.489  1.00  0.00    +0.138 C 
BRANCH   4   5
ATOM      5  N   UNL     1      41.861  33.701  13.005  1.00  0.00    -0.350 N 
ATOM      6  C   UNL     1      42.823  32.736  13.184  1.00  0.00    +0.254 C 
ATOM      7  O   UNL     1      43.889  32.944  13.753  1.00  0.00    -0.269 OA
ATOM      8  H   UNL     1      41.056  33.529  12.420  1.00  0.00    +0.163 HD
BRANCH   6   9
ATOM      9  C   UNL     1      42.508  31.410  12.604  1.00  0.00    +0.076 C 
ATOM     10  C   UNL     1      41.587  28.450   9.383  1.00  0.00    +0.062 A 
ATOM     11  C   UNL     1      41.582  27.888  10.676  1.00  0.00    +0.074 A 
ATOM     12  N   UNL     1      41.878  29.755   9.406  1.00  0.00    -0.172 NA
ATOM     13  C   UNL     1      41.890  28.923  11.526  1.00  0.00    +0.155 A 
ATOM     14  N   UNL     1      42.065  30.048  10.715  1.00  0.00    -0.222 N 
ATOM     15  N   UNL     1      42.035  28.975  12.885  1.00  0.00    -0.236 NA
ATOM     16  C   UNL     1      42.376  31.280  11.274  1.00  0.00    +0.130 C 
ATOM     17  C   UNL     1      42.334  30.143  13.372  1.00  0.00    +0.129 C 
ATOM     18  C   UNL     1      41.325  27.767   8.094  1.00  0.00    +0.069 C 
ENDBRANCH   6   9
ENDBRANCH   4   5
ENDBRANCH   1   4
BRANCH   1  19
ATOM     19  N   UNL     1      41.852  35.972  15.835  1.00  0.00    -0.302 NA
ATOM     20  H   UNL     1      41.718  35.338  16.627  1.00  0.00    +0.123 HD
BRANCH  19  21
ATOM     21  C   UNL     1      43.299  36.148  15.631  1.00  0.00    +0.182 C 
BRANCH  21  22
ATOM     22  C   UNL     1      44.013  35.964  16.977  1.00  0.00    +0.237 C 
ATOM     23  O   UNL     1      43.370  35.796  18.015  1.00  0.00    -0.273 OA
BRANCH  22  24
ATOM     24  N   UNL     1      45.387  36.025  16.985  1.00  0.00    -0.326 N 
ATOM     25  C   UNL     1      46.292  35.459  15.995  1.00  0.00    +0.121 C 
ATOM     26  C   UNL     1      46.108  36.666  18.081  1.00  0.00    +0.189 C 
ATOM     27  C   UNL     1      47.671  35.957  16.405  1.00  0.00    +0.025 C 
ATOM     28  C   UNL     1      47.538  36.142  17.914  1.00  0.00    +0.043 C 
ATOM     29  C   UNL     1      46.068  38.144  17.987  1.00  0.00    +0.087 C 
ATOM     30  N   UNL     1      46.078  39.304  17.907  1.00  0.00    -0.196 NA
ENDBRANCH  22  24
ENDBRANCH  21  22
ENDBRANCH  19  21
ENDBRANCH   1  19
TORSDOF 7
ENDMDL
MODEL 2
REMARK VINA RESULT:    -7.308      3.304      8.649
REMARK INTER + INTRA:         -11.106
REMARK INTER:                  -9.875
REMARK INTRA:                  -1.231
REMARK UNBOUND:                -0.807
REMARK SMILES Cc1cc2ncc(C(=O)NCC(C)(C)NCC(=O)N3CCC[C@H]3C#N)cn2n1
REMARK SMILES IDX 12 1 13 2 14 3 11 4 10 5 8 6 9 7 7 9 2 10 3 11 28 12 4 13
REMARK SMILES IDX 27 14 5 15 26 16 6 17 1 18 15 19 16 21 17 22 18 23 19 24
REMARK SMILES IDX 20 25 23 26 21 27 22 28 24 29 25 30
REMARK H PARENT 10 8 15 20
ROOT
ATOM      1  C   UNL     1      45.034  30.960  14.771  1.00  0.00    +0.030 C 
ATOM      2  C   UNL     1      45.876  29.717  14.439  1.00  0.00    +0.030 C 
ATOM      3  C   UNL     1      44.974  31.101  16.307  1.00  0.00    +0.030 C 
ENDROOT
BRANCH   1   4
ATOM      4  C   UNL     1      45.646  32.258  14.152  1.00  0.00    +0.138 C 
BRANCH   4   5
ATOM      5  N   UNL     1      45.813  33.362  15.087  1.00  0.00    -0.350 N 
ATOM      6  C   UNL     1      46.487  34.508  14.739  1.00  0.00    +0.254 C 
ATOM      7  O   UNL     1      46.990  34.684  13.634  1.00  0.00    -0.269 OA
ATOM      8  H   UNL     1      45.527  33.198  16.042  1.00  0.00    +0.163 HD
BRANCH   6   9
ATOM      9  C   UNL     1      46.606  35.525  15.809  1.00  0.00    +0.076 C 
ATOM     10  C   UNL     1      48.633  37.908  19.001  1.00  0.00    +0.062 A 
ATOM     11  C   UNL     1      47.269  38.226  18.850  1.00  0.00    +0.074 A 
ATOM     12  N   UNL     1      49.026  36.961  18.143  1.00  0.00    -0.172 NA
ATOM     13  C   UNL     1      46.816  37.418  17.835  1.00  0.00    +0.155 A 
ATOM     14  N   UNL     1      47.917  36.659  17.426  1.00  0.00    -0.222 N 
ATOM     15  N   UNL     1      45.586  37.291  17.249  1.00  0.00    -0.236 NA
ATOM     16  C   UNL     1      47.791  35.722  16.411  1.00  0.00    +0.130 C 
ATOM     17  C   UNL     1      45.508  36.408  16.297  1.00  0.00    +0.129 C 
ATOM     18  C   UNL     1      49.603  38.496  19.957  1.00  0.00    +0.069 C 
ENDBRANCH   6   9
ENDBRANCH   4   5
ENDBRANCH   1   4
BRANCH   1  19
ATOM     19  N   UNL     1      43.626  30.758  14.351  1.00  0.00    -0.302 NA
ATOM     20  H   UNL     1      43.386  29.765  14.405  1.00  0.00    +0.123 HD
BRANCH  19  21
ATOM     21  C   UNL     1      42.621  31.512  15.116  1.00  0.00    +0.182 C 
BRANCH  21  22
ATOM     22  C   UNL     1      42.133  32.691  14.263  1.00  0.00    +0.237 C 
ATOM     23  O   UNL     1      41.876  32.542  13.067  1.00  0.00    -0.273 OA
BRANCH  22  24
ATOM     24  N   UNL     1      42.024  33.919  14.874  1.00  0.00    -0.326 N 
ATOM     25  C   UNL     1      42.492  35.196  14.356  1.00  0.00    +0.121 C 
ATOM     26  C   UNL     1      41.429  34.052  16.201  1.00  0.00    +0.189 C 
ATOM     27  C   UNL     1      41.972  36.228  15.348  1.00  0.00    +0.025 C 
ATOM     28  C   UNL     1      41.889  35.442  16.653  1.00  0.00    +0.043 C 
ATOM     29  C   UNL     1      39.950  33.968  16.161  1.00  0.00    +0.087 C 
ATOM     30  N   UNL     1      38.788  33.941  16.141  1.00  0.00    -0.196 NA
ENDBRANCH  22  24
ENDBRANCH  21  22
ENDBRANCH  19  21
ENDBRANCH   1  19
TORSDOF 7
ENDMDL
MODEL 3
REMARK VINA RESULT:    -7.212      2.431      7.915
REMARK INTER + INTRA:         -10.971
REMARK INTER:                  -9.637
REMARK INTRA:                  -1.333
REMARK UNBOUND:                -0.807
REMARK SMILES Cc1cc2ncc(C(=O)NCC(C)(C)NCC(=O)N3CCC[C@H]3C#N)cn2n1
REMARK SMILES IDX 12 1 13 2 14 3 11 4 10 5 8 6 9 7 7 9 2 10 3 11 28 12 4 13
REMARK SMILES IDX 27 14 5 15 26 16 6 17 1 18 15 19 16 21 17 22 18 23 19 24
REMARK SMILES IDX 20 25 23 26 21 27 22 28 24 29 25 30
REMARK H PARENT 10 8 15 20
ROOT
ATOM      1  C   UNL     1      43.197  30.052  13.794  1.00  0.00    +0.030 C 
ATOM      2  C   UNL     1      43.810  28.959  12.901  1.00  0.00    +0.030 C 
ATOM      3  C   UNL     1      41.695  29.740  13.969  1.00  0.00    +0.030 C 
ENDROOT
BRANCH   1   4
ATOM      4  C   UNL     1      43.885  30.108  15.196  1.00  0.00    +0.138 C 
BRANCH   4   5
ATOM      5  N   UNL     1      44.639  31.326  15.460  1.00  0.00    -0.350 N 
ATOM      6  C   UNL     1      45.436  31.457  16.571  1.00  0.00    +0.254 C 
ATOM      7  O   UNL     1      45.570  30.573  17.411  1.00  0.00    -0.269 OA
ATOM      8  H   UNL     1      44.451  32.118  14.860  1.00  0.00    +0.163 HD
BRANCH   6   9
ATOM      9  C   UNL     1      46.110  32.767  16.720  1.00  0.00    +0.076 C 
ATOM     10  C   UNL     1      46.456  37.123  17.661  1.00  0.00    +0.062 A 
ATOM     11  C   UNL     1      47.660  36.555  17.199  1.00  0.00    +0.074 A 
ATOM     12  N   UNL     1      45.469  36.223  17.726  1.00  0.00    -0.172 NA
ATOM     13  C   UNL     1      47.376  35.230  16.972  1.00  0.00    +0.155 A 
ATOM     14  N   UNL     1      46.028  35.063  17.306  1.00  0.00    -0.222 N 
ATOM     15  N   UNL     1      48.150  34.193  16.529  1.00  0.00    -0.236 NA
ATOM     16  C   UNL     1      45.417  33.824  17.175  1.00  0.00    +0.130 C 
ATOM     17  C   UNL     1      47.545  33.046  16.426  1.00  0.00    +0.129 C 
ATOM     18  C   UNL     1      46.209  38.530  18.061  1.00  0.00    +0.069 C 
ENDBRANCH   6   9
ENDBRANCH   4   5
ENDBRANCH   1   4
BRANCH   1  19
ATOM     19  N   UNL     1      43.237  31.365  13.106  1.00  0.00    -0.302 NA
ATOM     20  H   UNL     1      43.353  31.226  12.099  1.00  0.00    +0.123 HD
BRANCH  19  21
ATOM     21  C   UNL     1      42.064  32.228  13.316  1.00  0.00    +0.182 C 
BRANCH  21  22
ATOM     22  C   UNL     1      42.545  33.617  13.753  1.00  0.00    +0.237 C 
ATOM     23  O   UNL     1      43.712  33.801  14.103  1.00  0.00    -0.273 OA
BRANCH  22  24
ATOM     24  N   UNL     1      41.622  34.638  13.768  1.00  0.00    -0.326 N 
ATOM     25  C   UNL     1      41.047  35.311  12.613  1.00  0.00    +0.121 C 
ATOM     26  C   UNL     1      41.141  35.202  15.026  1.00  0.00    +0.189 C 
ATOM     27  C   UNL     1      39.979  36.228  13.195  1.00  0.00    +0.025 C 
ATOM     28  C   UNL     1      40.507  36.528  14.595  1.00  0.00    +0.043 C 
ATOM     29  C   UNL     1      40.145  34.326  15.686  1.00  0.00    +0.087 C 
ATOM     30  N   UNL     1      39.336  33.667  16.198  1.00  0.00    -0.196 NA
ENDBRANCH  22  24
ENDBRANCH  21  22
ENDBRANCH  19  21
ENDBRANCH   1  19
TORSDOF 7
ENDMDL
MODEL 4
REMARK VINA RESULT:    -7.041      5.445      8.253
REMARK INTER + INTRA:         -10.729
REMARK INTER:                 -10.050
REMARK INTRA:                  -0.679
REMARK UNBOUND:                -0.807
REMARK SMILES Cc1cc2ncc(C(=O)NCC(C)(C)NCC(=O)N3CCC[C@H]3C#N)cn2n1
REMARK SMILES IDX 12 1 13 2 14 3 11 4 10 5 8 6 9 7 7 9 2 10 3 11 28 12 4 13
REMARK SMILES IDX 27 14 5 15 26 16 6 17 1 18 15 19 16 21 17 22 18 23 19 24
REMARK SMILES IDX 20 25 23 26 21 27 22 28 24 29 25 30
REMARK H PARENT 10 8 15 20
ROOT
ATOM      1  C   UNL     1      41.970  28.876  14.260  1.00  0.00    +0.030 C 
ATOM      2  C   UNL     1      41.992  28.464  12.778  1.00  0.00    +0.030 C 
ATOM      3  C   UNL     1      40.495  29.018  14.694  1.00  0.00    +0.030 C 
ENDROOT
BRANCH   1   4
ATOM      4  C   UNL     1      42.681  27.820  15.166  1.00  0.00    +0.138 C 
BRANCH   4   5
ATOM      5  N   UNL     1      42.200  27.771  16.541  1.00  0.00    -0.350 N 
ATOM      6  C   UNL     1      41.452  26.716  17.006  1.00  0.00    +0.254 C 
ATOM      7  O   UNL     1      41.137  25.755  16.312  1.00  0.00    -0.269 OA
ATOM      8  H   UNL     1      42.329  28.603  17.099  1.00  0.00    +0.163 HD
BRANCH   6   9
ATOM      9  C   UNL     1      41.005  26.827  18.414  1.00  0.00    +0.076 C 
ATOM     10  C   UNL     1      39.110  28.738  21.982  1.00  0.00    +0.062 A 
ATOM     11  C   UNL     1      39.672  27.476  22.259  1.00  0.00    +0.074 A 
ATOM     12  N   UNL     1      39.260  29.084  20.700  1.00  0.00    -0.172 NA
ATOM     13  C   UNL     1      40.193  27.038  21.065  1.00  0.00    +0.155 A 
ATOM     14  N   UNL     1      39.922  28.046  20.134  1.00  0.00    -0.222 N 
ATOM     15  N   UNL     1      40.847  25.887  20.721  1.00  0.00    -0.236 NA
ATOM     16  C   UNL     1      40.334  27.919  18.815  1.00  0.00    +0.130 C 
ATOM     17  C   UNL     1      41.211  25.800  19.476  1.00  0.00    +0.129 C 
ATOM     18  C   UNL     1      38.409  29.647  22.922  1.00  0.00    +0.069 C 
ENDBRANCH   6   9
ENDBRANCH   4   5
ENDBRANCH   1   4
BRANCH   1  19
ATOM     19  N   UNL     1      42.549  30.230  14.429  1.00  0.00    -0.302 NA
ATOM     20  H   UNL     1      42.953  30.549  13.544  1.00  0.00    +0.123 HD
BRANCH  19  21
ATOM     21  C   UNL     1      41.618  31.265  14.905  1.00  0.00    +0.182 C 
BRANCH  21  22
ATOM     22  C   UNL     1      41.844  32.545  14.089  1.00  0.00    +0.237 C 
ATOM     23  O   UNL     1      42.047  32.493  12.875  1.00  0.00    -0.273 OA
BRANCH  22  24
ATOM     24  N   UNL     1      41.842  33.743  14.766  1.00  0.00    -0.326 N 
ATOM     25  C   UNL     1      42.402  35.006  14.308  1.00  0.00    +0.121 C 
ATOM     26  C   UNL     1      41.280  33.850  16.110  1.00  0.00    +0.189 C 
ATOM     27  C   UNL     1      41.981  36.019  15.363  1.00  0.00    +0.025 C 
ATOM     28  C   UNL     1      41.857  35.172  16.626  1.00  0.00    +0.043 C 
ATOM     29  C   UNL     1      39.799  33.884  16.095  1.00  0.00    +0.087 C 
ATOM     30  N   UNL     1      38.639  33.950  16.097  1.00  0.00    -0.196 NA
ENDBRANCH  22  24
ENDBRANCH  21  22
ENDBRANCH  19  21
ENDBRANCH   1  19
TORSDOF 7
ENDMDL
MODEL 5
REMARK VINA RESULT:    -6.487      4.680      8.192
REMARK INTER + INTRA:          -9.949
REMARK INTER:                  -9.096
REMARK INTRA:                  -0.853
REMARK UNBOUND:                -0.807
REMARK SMILES Cc1cc2ncc(C(=O)NCC(C)(C)NCC(=O)N3CCC[C@H]3C#N)cn2n1
REMARK SMILES IDX 12 1 13 2 14 3 11 4 10 5 8 6 9 7 7 9 2 10 3 11 28 12 4 13
REMARK SMILES IDX 27 14 5 15 26 16 6 17 1 18 15 19 16 21 17 22 18 23 19 24
REMARK SMILES IDX 20 25 23 26 21 27 22 28 24 29 25 30
REMARK H PARENT 10 8 15 20
ROOT
ATOM      1  C   UNL     1      42.057  27.628  12.429  1.00  0.00    +0.030 C 
ATOM      2  C   UNL     1      43.443  27.429  13.067  1.00  0.00    +0.030 C 
ATOM      3  C   UNL     1      42.150  27.214  10.944  1.00  0.00    +0.030 C 
ENDROOT
BRANCH   1   4
ATOM      4  C   UNL     1      40.962  26.769  13.142  1.00  0.00    +0.138 C 
BRANCH   4   5
ATOM      5  N   UNL     1      41.088  26.698  14.591  1.00  0.00    -0.350 N 
ATOM      6  C   UNL     1      40.582  27.681  15.409  1.00  0.00    +0.254 C 
ATOM      7  O   UNL     1      39.999  28.673  14.987  1.00  0.00    -0.269 OA
ATOM      8  H   UNL     1      41.674  25.964  14.963  1.00  0.00    +0.163 HD
BRANCH   6   9
ATOM      9  C   UNL     1      40.821  27.487  16.858  1.00  0.00    +0.076 C 
ATOM     10  C   UNL     1      40.019  27.874  21.238  1.00  0.00    +0.062 A 
ATOM     11  C   UNL     1      41.207  27.174  20.948  1.00  0.00    +0.074 A 
ATOM     12  N   UNL     1      39.383  28.263  20.129  1.00  0.00    -0.172 NA
ATOM     13  C   UNL     1      41.288  27.142  19.577  1.00  0.00    +0.155 A 
ATOM     14  N   UNL     1      40.156  27.817  19.109  1.00  0.00    -0.222 N 
ATOM     15  N   UNL     1      42.212  26.596  18.729  1.00  0.00    -0.236 NA
ATOM     16  C   UNL     1      39.940  27.975  17.748  1.00  0.00    +0.130 C 
ATOM     17  C   UNL     1      41.973  26.758  17.461  1.00  0.00    +0.129 C 
ATOM     18  C   UNL     1      39.450  28.186  22.572  1.00  0.00    +0.069 C 
ENDBRANCH   6   9
ENDBRANCH   4   5
ENDBRANCH   1   4
BRANCH   1  19
ATOM     19  N   UNL     1      41.700  29.066  12.403  1.00  0.00    -0.302 NA
ATOM     20  H   UNL     1      41.924  29.496  13.305  1.00  0.00    +0.123 HD
BRANCH  19  21
ATOM     21  C   UNL     1      42.343  29.862  11.346  1.00  0.00    +0.182 C 
BRANCH  21  22
ATOM     22  C   UNL     1      42.110  31.350  11.637  1.00  0.00    +0.237 C 
ATOM     23  O   UNL     1      41.470  32.054  10.854  1.00  0.00    -0.273 OA
BRANCH  22  24
ATOM     24  N   UNL     1      42.664  31.872  12.783  1.00  0.00    -0.326 N 
ATOM     25  C   UNL     1      44.021  31.669  13.267  1.00  0.00    +0.121 C 
ATOM     26  C   UNL     1      41.875  32.695  13.696  1.00  0.00    +0.189 C 
ATOM     27  C   UNL     1      44.144  32.595  14.469  1.00  0.00    +0.025 C 
ATOM     28  C   UNL     1      42.709  32.690  14.981  1.00  0.00    +0.043 C 
ATOM     29  C   UNL     1      41.690  34.074  13.187  1.00  0.00    +0.087 C 
ATOM     30  N   UNL     1      41.567  35.170  12.819  1.00  0.00    -0.196 NA
ENDBRANCH  22  24
ENDBRANCH  21  22
ENDBRANCH  19  21
ENDBRANCH   1  19
TORSDOF 7
ENDMDL
MODEL 6
REMARK VINA RESULT:    -5.675      7.110      9.871
REMARK INTER + INTRA:          -8.805
REMARK INTER:                  -8.158
REMARK INTRA:                  -0.647
REMARK UNBOUND:                -0.807
REMARK SMILES Cc1cc2ncc(C(=O)NCC(C)(C)NCC(=O)N3CCC[C@H]3C#N)cn2n1
REMARK SMILES IDX 12 1 13 2 14 3 11 4 10 5 8 6 9 7 7 9 2 10 3 11 28 12 4 13
REMARK SMILES IDX 27 14 5 15 26 16 6 17 1 18 15 19 16 21 17 22 18 23 19 24
REMARK SMILES IDX 20 25 23 26 21 27 22 28 24 29 25 30
REMARK H PARENT 10 8 15 20
ROOT
ATOM      1  C   UNL     1      42.685  26.420  12.756  1.00  0.00    +0.030 C 
ATOM      2  C   UNL     1      43.300  25.410  13.739  1.00  0.00    +0.030 C 
ATOM      3  C   UNL     1      41.556  25.706  11.981  1.00  0.00    +0.030 C 
ENDROOT
BRANCH   1   4
ATOM      4  C   UNL     1      42.102  27.668  13.495  1.00  0.00    +0.138 C 
BRANCH   4   5
ATOM      5  N   UNL     1      42.007  27.532  14.943  1.00  0.00    -0.350 N 
ATOM      6  C   UNL     1      40.814  27.254  15.565  1.00  0.00    +0.254 C 
ATOM      7  O   UNL     1      39.758  27.103  14.961  1.00  0.00    -0.269 OA
ATOM      8  H   UNL     1      42.828  27.779  15.478  1.00  0.00    +0.163 HD
BRANCH   6   9
ATOM      9  C   UNL     1      40.871  27.183  17.044  1.00  0.00    +0.076 C 
ATOM     10  C   UNL     1      39.818  28.271  21.250  1.00  0.00    +0.062 A 
ATOM     11  C   UNL     1      40.813  27.277  21.163  1.00  0.00    +0.074 A 
ATOM     12  N   UNL     1      39.397  28.666  20.044  1.00  0.00    -0.172 NA
ATOM     13  C   UNL     1      41.001  27.063  19.819  1.00  0.00    +0.155 A 
ATOM     14  N   UNL     1      40.118  27.929  19.165  1.00  0.00    -0.222 N 
ATOM     15  N   UNL     1      41.827  26.214  19.136  1.00  0.00    -0.236 NA
ATOM     16  C   UNL     1      40.067  27.971  17.779  1.00  0.00    +0.130 C 
ATOM     17  C   UNL     1      41.747  26.276  17.839  1.00  0.00    +0.129 C 
ATOM     18  C   UNL     1      39.232  28.867  22.475  1.00  0.00    +0.069 C 
ENDBRANCH   6   9
ENDBRANCH   4   5
ENDBRANCH   1   4
BRANCH   1  19
ATOM     19  N   UNL     1      43.674  26.804  11.721  1.00  0.00    -0.302 NA
ATOM     20  H   UNL     1      43.561  26.210  10.894  1.00  0.00    +0.123 HD
BRANCH  19  21
ATOM     21  C   UNL     1      43.626  28.207  11.284  1.00  0.00    +0.182 C 
BRANCH  21  22
ATOM     22  C   UNL     1      44.592  28.392  10.106  1.00  0.00    +0.237 C 
ATOM     23  O   UNL     1      44.283  28.022   8.972  1.00  0.00    -0.273 OA
BRANCH  22  24
ATOM     24  N   UNL     1      45.820  28.955  10.369  1.00  0.00    -0.326 N 
ATOM     25  C   UNL     1      46.215  29.663  11.577  1.00  0.00    +0.121 C 
ATOM     26  C   UNL     1      46.890  28.928   9.375  1.00  0.00    +0.189 C 
ATOM     27  C   UNL     1      47.705  29.923  11.401  1.00  0.00    +0.025 C 
ATOM     28  C   UNL     1      47.867  29.993   9.885  1.00  0.00    +0.043 C 
ATOM     29  C   UNL     1      47.543  27.601   9.295  1.00  0.00    +0.087 C 
ATOM     30  N   UNL     1      48.091  26.576   9.245  1.00  0.00    -0.196 NA
ENDBRANCH  22  24
ENDBRANCH  21  22
ENDBRANCH  19  21
ENDBRANCH   1  19
TORSDOF 7
ENDMDL
MODEL 7
REMARK VINA RESULT:    -5.155      7.398     10.178
REMARK INTER + INTRA:          -8.072
REMARK INTER:                  -7.222
REMARK INTRA:                  -0.850
REMARK UNBOUND:                -0.807
REMARK SMILES Cc1cc2ncc(C(=O)NCC(C)(C)NCC(=O)N3CCC[C@H]3C#N)cn2n1
REMARK SMILES IDX 12 1 13 2 14 3 11 4 10 5 8 6 9 7 7 9 2 10 3 11 28 12 4 13
REMARK SMILES IDX 27 14 5 15 26 16 6 17 1 18 15 19 16 21 17 22 18 23 19 24
REMARK SMILES IDX 20 25 23 26 21 27 22 28 24 29 25 30
REMARK H PARENT 10 8 15 20
ROOT
ATOM      1  C   UNL     1      42.173  26.479  13.366  1.00  0.00    +0.030 C 
ATOM      2  C   UNL     1      42.830  25.497  14.351  1.00  0.00    +0.030 C 
ATOM      3  C   UNL     1      40.918  25.798  12.777  1.00  0.00    +0.030 C 
ENDROOT
BRANCH   1   4
ATOM      4  C   UNL     1      41.762  27.815  14.065  1.00  0.00    +0.138 C 
BRANCH   4   5
ATOM      5  N   UNL     1      41.694  27.748  15.519  1.00  0.00    -0.350 N 
ATOM      6  C   UNL     1      40.517  27.486  16.176  1.00  0.00    +0.254 C 
ATOM      7  O   UNL     1      39.452  27.292  15.599  1.00  0.00    -0.269 OA
ATOM      8  H   UNL     1      42.521  28.031  16.027  1.00  0.00    +0.163 HD
BRANCH   6   9
ATOM      9  C   UNL     1      40.600  27.487  17.655  1.00  0.00    +0.076 C 
ATOM     10  C   UNL     1      41.950  26.124  21.693  1.00  0.00    +0.062 A 
ATOM     11  C   UNL     1      41.024  27.186  21.743  1.00  0.00    +0.074 A 
ATOM     12  N   UNL     1      42.229  25.762  20.437  1.00  0.00    -0.172 NA
ATOM     13  C   UNL     1      40.731  27.478  20.432  1.00  0.00    +0.155 A 
ATOM     14  N   UNL     1      41.486  26.588  19.662  1.00  0.00    -0.222 N 
ATOM     15  N   UNL     1      39.908  28.413  19.868  1.00  0.00    -0.236 NA
ATOM     16  C   UNL     1      41.408  26.612  18.277  1.00  0.00    +0.130 C 
ATOM     17  C   UNL     1      39.866  28.410  18.568  1.00  0.00    +0.129 C 
ATOM     18  C   UNL     1      42.599  25.430  22.831  1.00  0.00    +0.069 C 
ENDBRANCH   6   9
ENDBRANCH   4   5
ENDBRANCH   1   4
BRANCH   1  19
ATOM     19  N   UNL     1      43.060  26.715  12.201  1.00  0.00    -0.302 NA
ATOM     20  H   UNL     1      42.501  26.992  11.389  1.00  0.00    +0.123 HD
BRANCH  19  21
ATOM     21  C   UNL     1      44.110  27.726  12.397  1.00  0.00    +0.182 C 
BRANCH  21  22
ATOM     22  C   UNL     1      45.466  27.106  12.032  1.00  0.00    +0.237 C 
ATOM     23  O   UNL     1      45.767  25.974  12.416  1.00  0.00    -0.273 OA
BRANCH  22  24
ATOM     24  N   UNL     1      46.338  27.869  11.290  1.00  0.00    -0.326 N 
ATOM     25  C   UNL     1      47.580  28.471  11.751  1.00  0.00    +0.121 C 
ATOM     26  C   UNL     1      46.054  28.200   9.896  1.00  0.00    +0.189 C 
ATOM     27  C   UNL     1      48.214  29.054  10.496  1.00  0.00    +0.025 C 
ATOM     28  C   UNL     1      47.010  29.363   9.611  1.00  0.00    +0.043 C 
ATOM     29  C   UNL     1      46.317  27.060   8.987  1.00  0.00    +0.087 C 
ATOM     30  N   UNL     1      46.553  26.187   8.257  1.00  0.00    -0.196 NA
ENDBRANCH  22  24
ENDBRANCH  21  22
ENDBRANCH  19  21
ENDBRANCH   1  19
TORSDOF 7
ENDMDL
