MODEL 1
REMARK VINA RESULT:    -8.237      0.000      0.000
REMARK INTER + INTRA:          -9.978
REMARK INTER:                  -9.681
REMARK INTRA:                  -0.297
REMARK UNBOUND:                -0.297
REMARK SMILES O=c1cc(-c2ccc(O)c(O)c2)oc2cc(O)cc(O)c12
REMARK SMILES IDX 1 1 2 2 3 3 4 4 13 5 14 6 15 7 16 8 18 9 19 10 21 11 5 12
REMARK SMILES IDX 6 13 12 14 7 15 10 16 8 17 11 18 9 20 20 22 17 24
REMARK H PARENT 11 19 9 21 20 23 17 25
ROOT
ATOM      1  O   UNL     1      39.850  49.349  39.545  1.00  0.00    -0.289 OA
ATOM      2  C   UNL     1      39.767  49.553  38.339  1.00  0.00    +0.197 C 
ATOM      3  C   UNL     1      40.848  50.214  37.594  1.00  0.00    +0.100 C 
ATOM      4  C   UNL     1      40.701  50.412  36.276  1.00  0.00    +0.138 C 
ATOM      5  O   UNL     1      39.578  50.046  35.550  1.00  0.00    -0.456 OA
ATOM      6  C   UNL     1      38.552  49.412  36.208  1.00  0.00    +0.146 A 
ATOM      7  C   UNL     1      37.447  49.037  35.442  1.00  0.00    +0.094 A 
ATOM      8  C   UNL     1      36.377  48.396  36.062  1.00  0.00    +0.123 A 
ATOM      9  C   UNL     1      36.396  48.125  37.428  1.00  0.00    +0.093 A 
ATOM     10  C   UNL     1      37.502  48.500  38.187  1.00  0.00    +0.134 A 
ATOM     11  C   UNL     1      38.582  49.143  37.576  1.00  0.00    +0.107 A 
ENDROOT
BRANCH   4  12
ATOM     12  C   UNL     1      41.745  51.080  35.475  1.00  0.00    +0.021 A 
ATOM     13  C   UNL     1      42.313  52.299  35.888  1.00  0.00    +0.016 A 
ATOM     14  C   UNL     1      42.204  50.481  34.288  1.00  0.00    +0.062 A 
ATOM     15  C   UNL     1      43.308  52.919  35.127  1.00  0.00    +0.051 A 
ATOM     16  C   UNL     1      43.195  51.107  33.537  1.00  0.00    +0.158 A 
ATOM     17  C   UNL     1      43.739  52.316  33.957  1.00  0.00    +0.157 A 
BRANCH  16  18
ATOM     18  O   UNL     1      43.669  50.567  32.373  1.00  0.00    -0.504 OA
ATOM     19  H   UNL     1      43.304  51.076  31.628  1.00  0.00    +0.293 HD
ENDBRANCH  16  18
BRANCH  17  20
ATOM     20  O   UNL     1      44.712  52.922  33.214  1.00  0.00    -0.504 OA
ATOM     21  H   UNL     1      44.368  52.908  32.299  1.00  0.00    +0.293 HD
ENDBRANCH  17  20
ENDBRANCH   4  12
BRANCH  10  22
ATOM     22  O   UNL     1      37.467  48.208  39.524  1.00  0.00    -0.507 OA
ATOM     23  H   UNL     1      37.237  47.258  39.626  1.00  0.00    +0.293 HD
ENDBRANCH  10  22
BRANCH   8  24
ATOM     24  O   UNL     1      35.277  48.009  35.357  1.00  0.00    -0.508 OA
ATOM     25  H   UNL     1      35.329  47.057  35.173  1.00  0.00    +0.293 HD
ENDBRANCH   8  24
TORSDOF 5
ENDMDL
MODEL 2
REMARK VINA RESULT:    -7.933      4.114      8.202
REMARK INTER + INTRA:          -9.621
REMARK INTER:                  -9.311
REMARK INTRA:                  -0.311
REMARK UNBOUND:                -0.297
REMARK SMILES O=c1cc(-c2ccc(O)c(O)c2)oc2cc(O)cc(O)c12
REMARK SMILES IDX 1 1 2 2 3 3 4 4 13 5 14 6 15 7 16 8 18 9 19 10 21 11 5 12
REMARK SMILES IDX 6 13 12 14 7 15 10 16 8 17 11 18 9 20 20 22 17 24
REMARK H PARENT 11 19 9 21 20 23 17 25
ROOT
ATOM      1  O   UNL     1      38.739  52.228  39.548  1.00  0.00    -0.289 OA
ATOM      2  C   UNL     1      38.274  51.104  39.708  1.00  0.00    +0.197 C 
ATOM      3  C   UNL     1      38.175  50.495  41.042  1.00  0.00    +0.100 C 
ATOM      4  C   UNL     1      37.659  49.262  41.156  1.00  0.00    +0.138 C 
ATOM      5  O   UNL     1      37.217  48.498  40.088  1.00  0.00    -0.456 OA
ATOM      6  C   UNL     1      37.279  49.038  38.826  1.00  0.00    +0.146 A 
ATOM      7  C   UNL     1      36.804  48.249  37.777  1.00  0.00    +0.094 A 
ATOM      8  C   UNL     1      36.849  48.749  36.478  1.00  0.00    +0.123 A 
ATOM      9  C   UNL     1      37.360  50.017  36.213  1.00  0.00    +0.093 A 
ATOM     10  C   UNL     1      37.831  50.799  37.264  1.00  0.00    +0.134 A 
ATOM     11  C   UNL     1      37.790  50.311  38.573  1.00  0.00    +0.107 A 
ENDROOT
BRANCH   4  12
ATOM     12  C   UNL     1      37.543  48.592  42.466  1.00  0.00    +0.021 A 
ATOM     13  C   UNL     1      38.522  48.766  43.462  1.00  0.00    +0.016 A 
ATOM     14  C   UNL     1      36.426  47.783  42.740  1.00  0.00    +0.062 A 
ATOM     15  C   UNL     1      38.398  48.135  44.704  1.00  0.00    +0.051 A 
ATOM     16  C   UNL     1      36.313  47.159  43.979  1.00  0.00    +0.158 A 
ATOM     17  C   UNL     1      37.294  47.335  44.949  1.00  0.00    +0.157 A 
BRANCH  16  18
ATOM     18  O   UNL     1      35.249  46.358  44.290  1.00  0.00    -0.504 OA
ATOM     19  H   UNL     1      35.540  45.702  44.947  1.00  0.00    +0.293 HD
ENDBRANCH  16  18
BRANCH  17  20
ATOM     20  O   UNL     1      37.173  46.720  46.162  1.00  0.00    -0.504 OA
ATOM     21  H   UNL     1      38.040  46.292  46.309  1.00  0.00    +0.293 HD
ENDBRANCH  17  20
ENDBRANCH   4  12
BRANCH  10  22
ATOM     22  O   UNL     1      38.321  52.038  36.946  1.00  0.00    -0.507 OA
ATOM     23  H   UNL     1      37.583  52.685  37.005  1.00  0.00    +0.293 HD
ENDBRANCH  10  22
BRANCH   8  24
ATOM     24  O   UNL     1      36.396  48.017  35.421  1.00  0.00    -0.508 OA
ATOM     25  H   UNL     1      35.449  48.190  35.291  1.00  0.00    +0.293 HD
ENDBRANCH   8  24
TORSDOF 5
ENDMDL
MODEL 3
REMARK VINA RESULT:    -6.849      2.265      3.088
REMARK INTER + INTRA:          -8.347
REMARK INTER:                  -8.079
REMARK INTRA:                  -0.268
REMARK UNBOUND:                -0.297
REMARK SMILES O=c1cc(-c2ccc(O)c(O)c2)oc2cc(O)cc(O)c12
REMARK SMILES IDX 1 1 2 2 3 3 4 4 13 5 14 6 15 7 16 8 18 9 19 10 21 11 5 12
REMARK SMILES IDX 6 13 12 14 7 15 10 16 8 17 11 18 9 20 20 22 17 24
REMARK H PARENT 11 19 9 21 20 23 17 25
ROOT
ATOM      1  O   UNL     1      36.367  52.422  37.194  1.00  0.00    -0.289 OA
ATOM      2  C   UNL     1      37.066  51.439  36.976  1.00  0.00    +0.197 C 
ATOM      3  C   UNL     1      38.528  51.483  37.130  1.00  0.00    +0.100 C 
ATOM      4  C   UNL     1      39.241  50.377  36.877  1.00  0.00    +0.138 C 
ATOM      5  O   UNL     1      38.696  49.173  36.459  1.00  0.00    -0.456 OA
ATOM      6  C   UNL     1      37.332  49.086  36.318  1.00  0.00    +0.146 A 
ATOM      7  C   UNL     1      36.815  47.853  35.917  1.00  0.00    +0.094 A 
ATOM      8  C   UNL     1      35.439  47.714  35.755  1.00  0.00    +0.123 A 
ATOM      9  C   UNL     1      34.577  48.783  35.986  1.00  0.00    +0.093 A 
ATOM     10  C   UNL     1      35.098  50.010  36.386  1.00  0.00    +0.134 A 
ATOM     11  C   UNL     1      36.477  50.163  36.554  1.00  0.00    +0.107 A 
ENDROOT
BRANCH   4  12
ATOM     12  C   UNL     1      40.712  50.362  37.002  1.00  0.00    +0.021 A 
ATOM     13  C   UNL     1      41.338  49.948  38.192  1.00  0.00    +0.016 A 
ATOM     14  C   UNL     1      41.509  50.742  35.908  1.00  0.00    +0.062 A 
ATOM     15  C   UNL     1      42.732  49.928  38.298  1.00  0.00    +0.051 A 
ATOM     16  C   UNL     1      42.896  50.718  36.023  1.00  0.00    +0.158 A 
ATOM     17  C   UNL     1      43.498  50.315  37.211  1.00  0.00    +0.157 A 
BRANCH  16  18
ATOM     18  O   UNL     1      43.714  51.086  34.990  1.00  0.00    -0.504 OA
ATOM     19  H   UNL     1      44.609  51.230  35.342  1.00  0.00    +0.293 HD
ENDBRANCH  16  18
BRANCH  17  20
ATOM     20  O   UNL     1      44.859  50.295  37.314  1.00  0.00    -0.504 OA
ATOM     21  H   UNL     1      45.034  49.934  38.206  1.00  0.00    +0.293 HD
ENDBRANCH  17  20
ENDBRANCH   4  12
BRANCH  10  22
ATOM     22  O   UNL     1      34.205  51.025  36.599  1.00  0.00    -0.507 OA
ATOM     23  H   UNL     1      34.121  51.164  37.569  1.00  0.00    +0.293 HD
ENDBRANCH  10  22
BRANCH   8  24
ATOM     24  O   UNL     1      34.887  46.529  35.367  1.00  0.00    -0.508 OA
ATOM     25  H   UNL     1      34.428  46.649  34.520  1.00  0.00    +0.293 HD
ENDBRANCH   8  24
TORSDOF 5
ENDMDL
