MODEL 1
REMARK VINA RESULT:    -7.549      0.000      0.000
REMARK INTER + INTRA:          -9.520
REMARK INTER:                  -9.094
REMARK INTRA:                  -0.426
REMARK UNBOUND:                -0.426
REMARK SMILES Cn1c(=O)cc(N2CCC[C@@H](N)C2)n(Cc2ccccc2C#N)c1=O
REMARK SMILES IDX 1 1 2 2 3 3 4 4 5 5 6 6 14 7 24 8 25 9 15 10 16 11 17 12
REMARK SMILES IDX 21 13 18 14 20 15 22 16 19 17 23 18 7 19 8 20 13 21 9 22
REMARK SMILES IDX 11 23 10 24 12 25
REMARK H PARENT 12 26 12 27
ROOT
ATOM      1  C   UNL     1      35.527  53.310  43.224  1.00  0.00    +0.158 C 
ATOM      2  N   UNL     1      36.121  52.307  42.362  1.00  0.00    -0.263 N 
ATOM      3  C   UNL     1      36.528  52.683  41.105  1.00  0.00    +0.258 C 
ATOM      4  O   UNL     1      36.418  53.814  40.634  1.00  0.00    -0.269 OA
ATOM      5  C   UNL     1      37.135  51.634  40.284  1.00  0.00    +0.117 C 
ATOM      6  C   UNL     1      37.208  50.365  40.710  1.00  0.00    +0.118 C 
ATOM      7  N   UNL     1      36.685  50.047  41.955  1.00  0.00    -0.275 N 
ATOM      8  C   UNL     1      36.119  50.993  42.808  1.00  0.00    +0.332 C 
ATOM      9  O   UNL     1      35.624  50.688  43.896  1.00  0.00    -0.247 OA
ENDROOT
BRANCH   7  10
ATOM     10  C   UNL     1      36.700  48.651  42.413  1.00  0.00    +0.166 C 
BRANCH  10  11
ATOM     11  C   UNL     1      37.704  48.379  43.524  1.00  0.00    -0.010 A 
ATOM     12  C   UNL     1      39.036  48.808  43.379  1.00  0.00    +0.007 A 
ATOM     13  C   UNL     1      37.359  47.657  44.684  1.00  0.00    +0.057 A 
ATOM     14  C   UNL     1      39.988  48.563  44.371  1.00  0.00    +0.000 A 
ATOM     15  C   UNL     1      38.323  47.416  45.678  1.00  0.00    +0.020 A 
ATOM     16  C   UNL     1      36.036  47.142  44.897  1.00  0.00    +0.099 C 
ATOM     17  C   UNL     1      39.631  47.871  45.523  1.00  0.00    +0.001 A 
ATOM     18  N   UNL     1      34.973  46.714  45.083  1.00  0.00    -0.192 NA
ENDBRANCH  10  11
ENDBRANCH   7  10
BRANCH   6  19
ATOM     19  N   UNL     1      37.808  49.393  39.896  1.00  0.00    -0.356 N 
ATOM     20  C   UNL     1      36.997  48.280  39.365  1.00  0.00    +0.118 C 
ATOM     21  C   UNL     1      38.969  49.799  39.062  1.00  0.00    +0.136 C 
ATOM     22  C   UNL     1      36.897  48.348  37.847  1.00  0.00    +0.023 C 
ATOM     23  C   UNL     1      39.418  48.678  38.103  1.00  0.00    +0.070 C 
ATOM     24  C   UNL     1      38.268  48.268  37.171  1.00  0.00    +0.022 C 
BRANCH  23  25
ATOM     25  N   UNL     1      40.596  49.053  37.312  1.00  0.00    -0.326 NA
ATOM     26  H   UNL     1      40.488  50.008  36.972  1.00  0.00    +0.119 HD
ATOM     27  H   UNL     1      41.432  49.052  37.897  1.00  0.00    +0.119 HD
ENDBRANCH  23  25
ENDBRANCH   6  19
TORSDOF 4
ENDMDL
MODEL 2
REMARK VINA RESULT:    -7.449      4.714      7.946
REMARK INTER + INTRA:          -9.399
REMARK INTER:                  -8.594
REMARK INTRA:                  -0.806
REMARK UNBOUND:                -0.426
REMARK SMILES Cn1c(=O)cc(N2CCC[C@@H](N)C2)n(Cc2ccccc2C#N)c1=O
REMARK SMILES IDX 1 1 2 2 3 3 4 4 5 5 6 6 14 7 24 8 25 9 15 10 16 11 17 12
REMARK SMILES IDX 21 13 18 14 20 15 22 16 19 17 23 18 7 19 8 20 13 21 9 22
REMARK SMILES IDX 11 23 10 24 12 25
REMARK H PARENT 12 26 12 27
ROOT
ATOM      1  C   UNL     1      42.428  51.506  41.484  1.00  0.00    +0.158 C 
ATOM      2  N   UNL     1      41.449  51.263  40.442  1.00  0.00    -0.263 N 
ATOM      3  C   UNL     1      40.620  50.175  40.565  1.00  0.00    +0.258 C 
ATOM      4  O   UNL     1      40.646  49.366  41.491  1.00  0.00    -0.269 OA
ATOM      5  C   UNL     1      39.641  49.988  39.493  1.00  0.00    +0.117 C 
ATOM      6  C   UNL     1      39.617  50.788  38.418  1.00  0.00    +0.118 C 
ATOM      7  N   UNL     1      40.554  51.807  38.323  1.00  0.00    -0.275 N 
ATOM      8  C   UNL     1      41.497  52.069  39.314  1.00  0.00    +0.332 C 
ATOM      9  O   UNL     1      42.348  52.955  39.197  1.00  0.00    -0.247 OA
ENDROOT
BRANCH   7  10
ATOM     10  C   UNL     1      40.583  52.655  37.123  1.00  0.00    +0.166 C 
BRANCH  10  11
ATOM     11  C   UNL     1      41.648  52.254  36.112  1.00  0.00    -0.010 A 
ATOM     12  C   UNL     1      41.644  50.952  35.577  1.00  0.00    +0.007 A 
ATOM     13  C   UNL     1      42.683  53.129  35.727  1.00  0.00    +0.057 A 
ATOM     14  C   UNL     1      42.614  50.544  34.659  1.00  0.00    +0.000 A 
ATOM     15  C   UNL     1      43.654  52.710  34.803  1.00  0.00    +0.020 A 
ATOM     16  C   UNL     1      42.793  54.459  36.256  1.00  0.00    +0.099 C 
ATOM     17  C   UNL     1      43.617  51.424  34.267  1.00  0.00    +0.001 A 
ATOM     18  N   UNL     1      42.899  55.536  36.677  1.00  0.00    -0.192 NA
ENDBRANCH  10  11
ENDBRANCH   7  10
BRANCH   6  19
ATOM     19  N   UNL     1      38.654  50.581  37.419  1.00  0.00    -0.356 N 
ATOM     20  C   UNL     1      38.727  49.376  36.569  1.00  0.00    +0.118 C 
ATOM     21  C   UNL     1      37.292  51.134  37.637  1.00  0.00    +0.136 C 
ATOM     22  C   UNL     1      37.529  48.466  36.802  1.00  0.00    +0.023 C 
ATOM     23  C   UNL     1      36.301  50.691  36.541  1.00  0.00    +0.070 C 
ATOM     24  C   UNL     1      36.202  49.159  36.486  1.00  0.00    +0.022 C 
BRANCH  23  25
ATOM     25  N   UNL     1      34.966  51.275  36.719  1.00  0.00    -0.326 NA
ATOM     26  H   UNL     1      34.970  51.889  37.533  1.00  0.00    +0.119 HD
ATOM     27  H   UNL     1      34.726  51.862  35.921  1.00  0.00    +0.119 HD
ENDBRANCH  23  25
ENDBRANCH   6  19
TORSDOF 4
ENDMDL
MODEL 3
REMARK VINA RESULT:    -7.093      2.260      5.617
REMARK INTER + INTRA:          -8.970
REMARK INTER:                  -7.881
REMARK INTRA:                  -1.089
REMARK UNBOUND:                -0.426
REMARK SMILES Cn1c(=O)cc(N2CCC[C@@H](N)C2)n(Cc2ccccc2C#N)c1=O
REMARK SMILES IDX 1 1 2 2 3 3 4 4 5 5 6 6 14 7 24 8 25 9 15 10 16 11 17 12
REMARK SMILES IDX 21 13 18 14 20 15 22 16 19 17 23 18 7 19 8 20 13 21 9 22
REMARK SMILES IDX 11 23 10 24 12 25
REMARK H PARENT 12 26 12 27
ROOT
ATOM      1  C   UNL     1      37.671  50.298  38.139  1.00  0.00    +0.158 C 
ATOM      2  N   UNL     1      37.539  49.951  39.541  1.00  0.00    -0.263 N 
ATOM      3  C   UNL     1      37.060  48.705  39.863  1.00  0.00    +0.258 C 
ATOM      4  O   UNL     1      36.714  47.848  39.053  1.00  0.00    -0.269 OA
ATOM      5  C   UNL     1      36.964  48.403  41.293  1.00  0.00    +0.117 C 
ATOM      6  C   UNL     1      37.248  49.323  42.224  1.00  0.00    +0.118 C 
ATOM      7  N   UNL     1      37.632  50.592  41.814  1.00  0.00    -0.275 N 
ATOM      8  C   UNL     1      37.778  50.948  40.475  1.00  0.00    +0.332 C 
ATOM      9  O   UNL     1      38.083  52.091  40.126  1.00  0.00    -0.247 OA
ENDROOT
BRANCH   7  10
ATOM     10  C   UNL     1      37.888  51.632  42.820  1.00  0.00    +0.166 C 
BRANCH  10  11
ATOM     11  C   UNL     1      36.625  52.258  43.392  1.00  0.00    -0.010 A 
ATOM     12  C   UNL     1      35.680  52.838  42.524  1.00  0.00    +0.007 A 
ATOM     13  C   UNL     1      36.386  52.330  44.780  1.00  0.00    +0.057 A 
ATOM     14  C   UNL     1      34.517  53.434  43.014  1.00  0.00    +0.000 A 
ATOM     15  C   UNL     1      35.213  52.932  45.264  1.00  0.00    +0.020 A 
ATOM     16  C   UNL     1      37.315  51.807  45.741  1.00  0.00    +0.099 C 
ATOM     17  C   UNL     1      34.279  53.478  44.384  1.00  0.00    +0.001 A 
ATOM     18  N   UNL     1      38.057  51.394  46.532  1.00  0.00    -0.192 NA
ENDBRANCH  10  11
ENDBRANCH   7  10
BRANCH   6  19
ATOM     19  N   UNL     1      37.153  48.988  43.583  1.00  0.00    -0.356 N 
ATOM     20  C   UNL     1      35.844  48.625  44.159  1.00  0.00    +0.118 C 
ATOM     21  C   UNL     1      38.337  48.369  44.235  1.00  0.00    +0.136 C 
ATOM     22  C   UNL     1      35.828  47.173  44.616  1.00  0.00    +0.023 C 
ATOM     23  C   UNL     1      38.035  47.907  45.674  1.00  0.00    +0.070 C 
ATOM     24  C   UNL     1      36.883  46.890  45.687  1.00  0.00    +0.022 C 
BRANCH  23  25
ATOM     25  N   UNL     1      39.213  47.341  46.343  1.00  0.00    -0.326 NA
ATOM     26  H   UNL     1      39.500  46.489  45.861  1.00  0.00    +0.119 HD
ATOM     27  H   UNL     1      40.001  47.984  46.278  1.00  0.00    +0.119 HD
ENDBRANCH  23  25
ENDBRANCH   6  19
TORSDOF 4
ENDMDL
MODEL 4
REMARK VINA RESULT:    -6.964      3.141      5.249
REMARK INTER + INTRA:          -8.816
REMARK INTER:                  -7.989
REMARK INTRA:                  -0.826
REMARK UNBOUND:                -0.426
REMARK SMILES Cn1c(=O)cc(N2CCC[C@@H](N)C2)n(Cc2ccccc2C#N)c1=O
REMARK SMILES IDX 1 1 2 2 3 3 4 4 5 5 6 6 14 7 24 8 25 9 15 10 16 11 17 12
REMARK SMILES IDX 21 13 18 14 20 15 22 16 19 17 23 18 7 19 8 20 13 21 9 22
REMARK SMILES IDX 11 23 10 24 12 25
REMARK H PARENT 12 26 12 27
ROOT
ATOM      1  C   UNL     1      35.731  48.387  36.092  1.00  0.00    +0.158 C 
ATOM      2  N   UNL     1      36.927  49.039  36.589  1.00  0.00    -0.263 N 
ATOM      3  C   UNL     1      37.774  49.629  35.682  1.00  0.00    +0.258 C 
ATOM      4  O   UNL     1      37.610  49.640  34.464  1.00  0.00    -0.269 OA
ATOM      5  C   UNL     1      38.956  50.287  36.241  1.00  0.00    +0.117 C 
ATOM      6  C   UNL     1      39.232  50.239  37.551  1.00  0.00    +0.118 C 
ATOM      7  N   UNL     1      38.376  49.539  38.389  1.00  0.00    -0.275 N 
ATOM      8  C   UNL     1      37.215  48.913  37.940  1.00  0.00    +0.332 C 
ATOM      9  O   UNL     1      36.484  48.261  38.691  1.00  0.00    -0.247 OA
ENDROOT
BRANCH   7  10
ATOM     10  C   UNL     1      38.695  49.423  39.818  1.00  0.00    +0.166 C 
BRANCH  10  11
ATOM     11  C   UNL     1      37.939  50.408  40.699  1.00  0.00    -0.010 A 
ATOM     12  C   UNL     1      38.069  51.790  40.468  1.00  0.00    +0.007 A 
ATOM     13  C   UNL     1      37.145  49.985  41.784  1.00  0.00    +0.057 A 
ATOM     14  C   UNL     1      37.402  52.723  41.265  1.00  0.00    +0.000 A 
ATOM     15  C   UNL     1      36.477  50.931  42.580  1.00  0.00    +0.020 A 
ATOM     16  C   UNL     1      36.991  48.599  42.122  1.00  0.00    +0.099 C 
ATOM     17  C   UNL     1      36.602  52.295  42.319  1.00  0.00    +0.001 A 
ATOM     18  N   UNL     1      36.859  47.482  42.412  1.00  0.00    -0.192 NA
ENDBRANCH  10  11
ENDBRANCH   7  10
BRANCH   6  19
ATOM     19  N   UNL     1      40.370  50.893  38.046  1.00  0.00    -0.356 N 
ATOM     20  C   UNL     1      41.652  50.167  38.135  1.00  0.00    +0.118 C 
ATOM     21  C   UNL     1      40.474  52.363  37.846  1.00  0.00    +0.136 C 
ATOM     22  C   UNL     1      42.690  50.768  37.196  1.00  0.00    +0.023 C 
ATOM     23  C   UNL     1      41.843  52.916  38.291  1.00  0.00    +0.070 C 
ATOM     24  C   UNL     1      42.982  52.236  37.516  1.00  0.00    +0.022 C 
BRANCH  23  25
ATOM     25  N   UNL     1      41.936  54.373  38.145  1.00  0.00    -0.326 NA
ATOM     26  H   UNL     1      41.863  54.812  39.062  1.00  0.00    +0.119 HD
ATOM     27  H   UNL     1      42.850  54.636  37.776  1.00  0.00    +0.119 HD
ENDBRANCH  23  25
ENDBRANCH   6  19
TORSDOF 4
ENDMDL
MODEL 5
REMARK VINA RESULT:    -6.829      4.171      6.793
REMARK INTER + INTRA:          -8.652
REMARK INTER:                  -7.813
REMARK INTRA:                  -0.839
REMARK UNBOUND:                -0.426
REMARK SMILES Cn1c(=O)cc(N2CCC[C@@H](N)C2)n(Cc2ccccc2C#N)c1=O
REMARK SMILES IDX 1 1 2 2 3 3 4 4 5 5 6 6 14 7 24 8 25 9 15 10 16 11 17 12
REMARK SMILES IDX 21 13 18 14 20 15 22 16 19 17 23 18 7 19 8 20 13 21 9 22
REMARK SMILES IDX 11 23 10 24 12 25
REMARK H PARENT 12 26 12 27
ROOT
ATOM      1  C   UNL     1      43.361  48.641  41.816  1.00  0.00    +0.158 C 
ATOM      2  N   UNL     1      43.081  49.278  40.544  1.00  0.00    -0.263 N 
ATOM      3  C   UNL     1      44.128  49.515  39.687  1.00  0.00    +0.258 C 
ATOM      4  O   UNL     1      45.305  49.241  39.914  1.00  0.00    -0.269 OA
ATOM      5  C   UNL     1      43.785  50.145  38.411  1.00  0.00    +0.117 C 
ATOM      6  C   UNL     1      42.534  50.541  38.138  1.00  0.00    +0.118 C 
ATOM      7  N   UNL     1      41.550  50.354  39.098  1.00  0.00    -0.275 N 
ATOM      8  C   UNL     1      41.790  49.734  40.324  1.00  0.00    +0.332 C 
ATOM      9  O   UNL     1      40.912  49.610  41.182  1.00  0.00    -0.247 OA
ENDROOT
BRANCH   7  10
ATOM     10  C   UNL     1      40.186  50.837  38.843  1.00  0.00    +0.166 C 
BRANCH  10  11
ATOM     11  C   UNL     1      39.195  49.732  38.507  1.00  0.00    -0.010 A 
ATOM     12  C   UNL     1      39.379  48.961  37.344  1.00  0.00    +0.007 A 
ATOM     13  C   UNL     1      38.055  49.483  39.298  1.00  0.00    +0.057 A 
ATOM     14  C   UNL     1      38.482  47.948  36.997  1.00  0.00    +0.000 A 
ATOM     15  C   UNL     1      37.158  48.462  38.941  1.00  0.00    +0.020 A 
ATOM     16  C   UNL     1      37.762  50.249  40.476  1.00  0.00    +0.099 C 
ATOM     17  C   UNL     1      37.373  47.695  37.797  1.00  0.00    +0.001 A 
ATOM     18  N   UNL     1      37.507  50.862  41.428  1.00  0.00    -0.192 NA
ENDBRANCH  10  11
ENDBRANCH   7  10
BRANCH   6  19
ATOM     19  N   UNL     1      42.246  51.130  36.898  1.00  0.00    -0.356 N 
ATOM     20  C   UNL     1      42.468  52.576  36.705  1.00  0.00    +0.118 C 
ATOM     21  C   UNL     1      42.375  50.290  35.678  1.00  0.00    +0.136 C 
ATOM     22  C   UNL     1      43.563  52.833  35.678  1.00  0.00    +0.023 C 
ATOM     23  C   UNL     1      42.189  51.109  34.385  1.00  0.00    +0.070 C 
ATOM     24  C   UNL     1      43.223  52.243  34.308  1.00  0.00    +0.022 C 
BRANCH  23  25
ATOM     25  N   UNL     1      42.264  50.279  33.177  1.00  0.00    -0.326 NA
ATOM     26  H   UNL     1      43.179  50.393  32.742  1.00  0.00    +0.119 HD
ATOM     27  H   UNL     1      42.187  49.291  33.420  1.00  0.00    +0.119 HD
ENDBRANCH  23  25
ENDBRANCH   6  19
TORSDOF 4
ENDMDL
MODEL 6
REMARK VINA RESULT:    -6.677      3.121      5.864
REMARK INTER + INTRA:          -8.469
REMARK INTER:                  -7.729
REMARK INTRA:                  -0.740
REMARK UNBOUND:                -0.426
REMARK SMILES Cn1c(=O)cc(N2CCC[C@@H](N)C2)n(Cc2ccccc2C#N)c1=O
REMARK SMILES IDX 1 1 2 2 3 3 4 4 5 5 6 6 14 7 24 8 25 9 15 10 16 11 17 12
REMARK SMILES IDX 21 13 18 14 20 15 22 16 19 17 23 18 7 19 8 20 13 21 9 22
REMARK SMILES IDX 11 23 10 24 12 25
REMARK H PARENT 12 26 12 27
ROOT
ATOM      1  C   UNL     1      34.485  47.046  47.438  1.00  0.00    +0.158 C 
ATOM      2  N   UNL     1      35.143  47.806  46.393  1.00  0.00    -0.263 N 
ATOM      3  C   UNL     1      35.347  47.203  45.176  1.00  0.00    +0.258 C 
ATOM      4  O   UNL     1      35.027  46.050  44.895  1.00  0.00    -0.269 OA
ATOM      5  C   UNL     1      36.000  48.022  44.154  1.00  0.00    +0.117 C 
ATOM      6  C   UNL     1      36.445  49.257  44.424  1.00  0.00    +0.118 C 
ATOM      7  N   UNL     1      36.287  49.758  45.708  1.00  0.00    -0.275 N 
ATOM      8  C   UNL     1      35.649  49.054  46.727  1.00  0.00    +0.332 C 
ATOM      9  O   UNL     1      35.550  49.497  47.874  1.00  0.00    -0.247 OA
ENDROOT
BRANCH   7  10
ATOM     10  C   UNL     1      36.823  51.085  46.039  1.00  0.00    +0.166 C 
BRANCH  10  11
ATOM     11  C   UNL     1      35.774  52.187  46.051  1.00  0.00    -0.010 A 
ATOM     12  C   UNL     1      35.160  52.577  44.846  1.00  0.00    +0.007 A 
ATOM     13  C   UNL     1      35.427  52.879  47.229  1.00  0.00    +0.057 A 
ATOM     14  C   UNL     1      34.204  53.594  44.816  1.00  0.00    +0.000 A 
ATOM     15  C   UNL     1      34.464  53.901  47.190  1.00  0.00    +0.020 A 
ATOM     16  C   UNL     1      36.034  52.581  48.495  1.00  0.00    +0.099 C 
ATOM     17  C   UNL     1      33.851  54.254  45.988  1.00  0.00    +0.001 A 
ATOM     18  N   UNL     1      36.519  52.356  49.526  1.00  0.00    -0.192 NA
ENDBRANCH  10  11
ENDBRANCH   7  10
BRANCH   6  19
ATOM     19  N   UNL     1      37.055  50.012  43.412  1.00  0.00    -0.356 N 
ATOM     20  C   UNL     1      38.504  49.873  43.166  1.00  0.00    +0.118 C 
ATOM     21  C   UNL     1      36.235  50.391  42.231  1.00  0.00    +0.136 C 
ATOM     22  C   UNL     1      38.774  49.280  41.790  1.00  0.00    +0.023 C 
ATOM     23  C   UNL     1      37.076  51.072  41.132  1.00  0.00    +0.070 C 
ATOM     24  C   UNL     1      38.208  50.146  40.663  1.00  0.00    +0.022 C 
BRANCH  23  25
ATOM     25  N   UNL     1      36.265  51.496  39.985  1.00  0.00    -0.326 NA
ATOM     26  H   UNL     1      36.157  52.510  40.000  1.00  0.00    +0.119 HD
ATOM     27  H   UNL     1      36.743  51.274  39.111  1.00  0.00    +0.119 HD
ENDBRANCH  23  25
ENDBRANCH   6  19
TORSDOF 4
ENDMDL
MODEL 7
REMARK VINA RESULT:    -5.478      3.238      5.332
REMARK INTER + INTRA:          -7.025
REMARK INTER:                  -5.921
REMARK INTRA:                  -1.104
REMARK UNBOUND:                -0.426
REMARK SMILES Cn1c(=O)cc(N2CCC[C@@H](N)C2)n(Cc2ccccc2C#N)c1=O
REMARK SMILES IDX 1 1 2 2 3 3 4 4 5 5 6 6 14 7 24 8 25 9 15 10 16 11 17 12
REMARK SMILES IDX 21 13 18 14 20 15 22 16 19 17 23 18 7 19 8 20 13 21 9 22
REMARK SMILES IDX 11 23 10 24 12 25
REMARK H PARENT 12 26 12 27
ROOT
ATOM      1  C   UNL     1      34.969  46.632  47.172  1.00  0.00    +0.158 C 
ATOM      2  N   UNL     1      35.792  47.428  46.283  1.00  0.00    -0.263 N 
ATOM      3  C   UNL     1      35.675  47.227  44.929  1.00  0.00    +0.258 C 
ATOM      4  O   UNL     1      34.931  46.406  44.397  1.00  0.00    -0.269 OA
ATOM      5  C   UNL     1      36.517  48.070  44.078  1.00  0.00    +0.117 C 
ATOM      6  C   UNL     1      37.406  48.926  44.600  1.00  0.00    +0.118 C 
ATOM      7  N   UNL     1      37.532  49.000  45.980  1.00  0.00    -0.275 N 
ATOM      8  C   UNL     1      36.747  48.254  46.857  1.00  0.00    +0.332 C 
ATOM      9  O   UNL     1      36.898  48.303  48.081  1.00  0.00    -0.247 OA
ENDROOT
BRANCH   7  10
ATOM     10  C   UNL     1      38.545  49.886  46.569  1.00  0.00    +0.166 C 
BRANCH  10  11
ATOM     11  C   UNL     1      39.959  49.327  46.514  1.00  0.00    -0.010 A 
ATOM     12  C   UNL     1      40.229  48.061  47.067  1.00  0.00    +0.007 A 
ATOM     13  C   UNL     1      41.034  50.059  45.971  1.00  0.00    +0.057 A 
ATOM     14  C   UNL     1      41.517  47.522  47.048  1.00  0.00    +0.000 A 
ATOM     15  C   UNL     1      42.327  49.509  45.956  1.00  0.00    +0.020 A 
ATOM     16  C   UNL     1      40.861  51.376  45.427  1.00  0.00    +0.099 C 
ATOM     17  C   UNL     1      42.566  48.243  46.489  1.00  0.00    +0.001 A 
ATOM     18  N   UNL     1      40.741  52.444  44.987  1.00  0.00    -0.192 NA
ENDBRANCH  10  11
ENDBRANCH   7  10
BRANCH   6  19
ATOM     19  N   UNL     1      38.185  49.723  43.749  1.00  0.00    -0.356 N 
ATOM     20  C   UNL     1      39.177  49.092  42.857  1.00  0.00    +0.118 C 
ATOM     21  C   UNL     1      37.602  51.001  43.261  1.00  0.00    +0.136 C 
ATOM     22  C   UNL     1      38.803  49.285  41.393  1.00  0.00    +0.023 C 
ATOM     23  C   UNL     1      38.499  51.687  42.211  1.00  0.00    +0.070 C 
ATOM     24  C   UNL     1      38.726  50.763  41.005  1.00  0.00    +0.022 C 
BRANCH  23  25
ATOM     25  N   UNL     1      37.956  52.975  41.762  1.00  0.00    -0.326 NA
ATOM     26  H   UNL     1      38.502  53.734  42.169  1.00  0.00    +0.119 HD
ATOM     27  H   UNL     1      38.051  53.067  40.751  1.00  0.00    +0.119 HD
ENDBRANCH  23  25
ENDBRANCH   6  19
TORSDOF 4
ENDMDL
