MODEL 1
REMARK VINA RESULT:    -8.187      0.000      0.000
REMARK INTER + INTRA:         -12.493
REMARK INTER:                 -11.538
REMARK INTRA:                  -0.955
REMARK UNBOUND:                -0.955
REMARK SMILES Cc1cc2ncc(C(=O)NCC(C)(C)NCC(=O)N3CCC[C@H]3C#N)cn2n1
REMARK SMILES IDX 12 1 13 2 14 3 11 4 10 5 8 6 9 7 7 9 2 10 3 11 28 12 4 13
REMARK SMILES IDX 27 14 5 15 26 16 6 17 1 18 15 19 16 21 17 22 18 23 19 24
REMARK SMILES IDX 20 25 23 26 21 27 22 28 24 29 25 30
REMARK H PARENT 10 8 15 20
ROOT
ATOM      1  C   UNL     1      46.724  32.651  18.505  1.00  0.00    +0.030 C 
ATOM      2  C   UNL     1      47.176  31.984  19.815  1.00  0.00    +0.030 C 
ATOM      3  C   UNL     1      46.369  31.535  17.498  1.00  0.00    +0.030 C 
ENDROOT
BRANCH   1   4
ATOM      4  C   UNL     1      45.481  33.573  18.722  1.00  0.00    +0.138 C 
BRANCH   4   5
ATOM      5  N   UNL     1      44.689  33.824  17.525  1.00  0.00    -0.350 N 
ATOM      6  C   UNL     1      44.000  34.999  17.349  1.00  0.00    +0.254 C 
ATOM      7  O   UNL     1      43.998  35.909  18.171  1.00  0.00    -0.269 OA
ATOM      8  H   UNL     1      44.563  33.048  16.891  1.00  0.00    +0.163 HD
BRANCH   6   9
ATOM      9  C   UNL     1      43.211  35.092  16.098  1.00  0.00    +0.076 C 
ATOM     10  C   UNL     1      39.865  36.408  13.443  1.00  0.00    +0.062 A 
ATOM     11  C   UNL     1      40.767  35.530  12.810  1.00  0.00    +0.074 A 
ATOM     12  N   UNL     1      40.218  36.664  14.707  1.00  0.00    -0.172 NA
ATOM     13  C   UNL     1      41.721  35.241  13.756  1.00  0.00    +0.155 A 
ATOM     14  N   UNL     1      41.354  35.952  14.903  1.00  0.00    -0.222 N 
ATOM     15  N   UNL     1      42.840  34.456  13.713  1.00  0.00    -0.236 NA
ATOM     16  C   UNL     1      42.113  35.866  16.061  1.00  0.00    +0.130 C 
ATOM     17  C   UNL     1      43.531  34.405  14.814  1.00  0.00    +0.129 C 
ATOM     18  C   UNL     1      38.650  37.035  12.867  1.00  0.00    +0.069 C 
ENDBRANCH   6   9
ENDBRANCH   4   5
ENDBRANCH   1   4
BRANCH   1  19
ATOM     19  N   UNL     1      47.852  33.383  17.880  1.00  0.00    -0.302 NA
ATOM     20  H   UNL     1      47.556  33.776  16.983  1.00  0.00    +0.123 HD
BRANCH  19  21
ATOM     21  C   UNL     1      48.429  34.469  18.687  1.00  0.00    +0.182 C 
BRANCH  21  22
ATOM     22  C   UNL     1      48.261  35.791  17.927  1.00  0.00    +0.237 C 
ATOM     23  O   UNL     1      47.840  35.805  16.769  1.00  0.00    -0.273 OA
BRANCH  22  24
ATOM     24  N   UNL     1      48.624  36.951  18.573  1.00  0.00    -0.326 N 
ATOM     25  C   UNL     1      49.952  37.545  18.618  1.00  0.00    +0.121 C 
ATOM     26  C   UNL     1      47.656  37.713  19.356  1.00  0.00    +0.189 C 
ATOM     27  C   UNL     1      49.751  38.882  19.319  1.00  0.00    +0.025 C 
ATOM     28  C   UNL     1      48.540  38.626  20.212  1.00  0.00    +0.043 C 
ATOM     29  C   UNL     1      46.744  38.506  18.499  1.00  0.00    +0.087 C 
ATOM     30  N   UNL     1      46.045  39.162  17.842  1.00  0.00    -0.196 NA
ENDBRANCH  22  24
ENDBRANCH  21  22
ENDBRANCH  19  21
ENDBRANCH   1  19
TORSDOF 7
ENDMDL
MODEL 2
REMARK VINA RESULT:    -8.067      4.356      6.204
REMARK INTER + INTRA:         -12.323
REMARK INTER:                 -11.337
REMARK INTRA:                  -0.986
REMARK UNBOUND:                -0.955
REMARK SMILES Cc1cc2ncc(C(=O)NCC(C)(C)NCC(=O)N3CCC[C@H]3C#N)cn2n1
REMARK SMILES IDX 12 1 13 2 14 3 11 4 10 5 8 6 9 7 7 9 2 10 3 11 28 12 4 13
REMARK SMILES IDX 27 14 5 15 26 16 6 17 1 18 15 19 16 21 17 22 18 23 19 24
REMARK SMILES IDX 20 25 23 26 21 27 22 28 24 29 25 30
REMARK H PARENT 10 8 15 20
ROOT
ATOM      1  C   UNL     1      41.391  35.138  14.833  1.00  0.00    +0.030 C 
ATOM      2  C   UNL     1      40.798  36.532  15.100  1.00  0.00    +0.030 C 
ATOM      3  C   UNL     1      40.345  34.084  15.254  1.00  0.00    +0.030 C 
ENDROOT
BRANCH   1   4
ATOM      4  C   UNL     1      41.753  34.941  13.325  1.00  0.00    +0.138 C 
BRANCH   4   5
ATOM      5  N   UNL     1      41.652  33.569  12.846  1.00  0.00    -0.350 N 
ATOM      6  C   UNL     1      42.676  32.668  13.016  1.00  0.00    +0.254 C 
ATOM      7  O   UNL     1      43.733  32.946  13.572  1.00  0.00    -0.269 OA
ATOM      8  H   UNL     1      40.853  33.344  12.271  1.00  0.00    +0.163 HD
BRANCH   6   9
ATOM      9  C   UNL     1      42.440  31.323  12.443  1.00  0.00    +0.076 C 
ATOM     10  C   UNL     1      41.566  28.313   9.255  1.00  0.00    +0.062 A 
ATOM     11  C   UNL     1      41.699  27.745  10.538  1.00  0.00    +0.074 A 
ATOM     12  N   UNL     1      41.742  29.638   9.274  1.00  0.00    -0.172 NA
ATOM     13  C   UNL     1      41.972  28.797  11.378  1.00  0.00    +0.155 A 
ATOM     14  N   UNL     1      41.991  29.939  10.571  1.00  0.00    -0.222 N 
ATOM     15  N   UNL     1      42.205  28.853  12.725  1.00  0.00    -0.236 NA
ATOM     16  C   UNL     1      42.230  31.190  11.123  1.00  0.00    +0.130 C 
ATOM     17  C   UNL     1      42.432  30.041  13.205  1.00  0.00    +0.129 C 
ATOM     18  C   UNL     1      41.277  27.617   7.978  1.00  0.00    +0.069 C 
ENDBRANCH   6   9
ENDBRANCH   4   5
ENDBRANCH   1   4
BRANCH   1  19
ATOM     19  N   UNL     1      42.556  34.894  15.717  1.00  0.00    -0.302 NA
ATOM     20  H   UNL     1      43.231  34.286  15.243  1.00  0.00    +0.123 HD
BRANCH  19  21
ATOM     21  C   UNL     1      43.270  36.095  16.176  1.00  0.00    +0.182 C 
BRANCH  21  22
ATOM     22  C   UNL     1      44.628  36.165  15.466  1.00  0.00    +0.237 C 
ATOM     23  O   UNL     1      44.697  36.227  14.238  1.00  0.00    -0.273 OA
BRANCH  22  24
ATOM     24  N   UNL     1      45.760  36.124  16.248  1.00  0.00    -0.326 N 
ATOM     25  C   UNL     1      47.050  35.555  15.887  1.00  0.00    +0.121 C 
ATOM     26  C   UNL     1      45.754  36.643  17.613  1.00  0.00    +0.189 C 
ATOM     27  C   UNL     1      47.971  35.925  17.042  1.00  0.00    +0.025 C 
ATOM     28  C   UNL     1      47.015  36.027  18.227  1.00  0.00    +0.043 C 
ATOM     29  C   UNL     1      45.813  38.123  17.648  1.00  0.00    +0.087 C 
ATOM     30  N   UNL     1      45.896  39.282  17.693  1.00  0.00    -0.196 NA
ENDBRANCH  22  24
ENDBRANCH  21  22
ENDBRANCH  19  21
ENDBRANCH   1  19
TORSDOF 7
ENDMDL
MODEL 3
REMARK VINA RESULT:    -7.961      2.071      2.614
REMARK INTER + INTRA:         -12.175
REMARK INTER:                 -11.458
REMARK INTRA:                  -0.716
REMARK UNBOUND:                -0.955
REMARK SMILES Cc1cc2ncc(C(=O)NCC(C)(C)NCC(=O)N3CCC[C@H]3C#N)cn2n1
REMARK SMILES IDX 12 1 13 2 14 3 11 4 10 5 8 6 9 7 7 9 2 10 3 11 28 12 4 13
REMARK SMILES IDX 27 14 5 15 26 16 6 17 1 18 15 19 16 21 17 22 18 23 19 24
REMARK SMILES IDX 20 25 23 26 21 27 22 28 24 29 25 30
REMARK H PARENT 10 8 15 20
ROOT
ATOM      1  C   UNL     1      46.643  34.396  15.350  1.00  0.00    +0.030 C 
ATOM      2  C   UNL     1      47.540  34.289  14.105  1.00  0.00    +0.030 C 
ATOM      3  C   UNL     1      45.944  35.772  15.318  1.00  0.00    +0.030 C 
ENDROOT
BRANCH   1   4
ATOM      4  C   UNL     1      45.565  33.264  15.387  1.00  0.00    +0.138 C 
BRANCH   4   5
ATOM      5  N   UNL     1      44.197  33.715  15.172  1.00  0.00    -0.350 N 
ATOM      6  C   UNL     1      43.125  33.059  15.727  1.00  0.00    +0.254 C 
ATOM      7  O   UNL     1      43.236  32.062  16.432  1.00  0.00    -0.269 OA
ATOM      8  H   UNL     1      44.061  34.452  14.494  1.00  0.00    +0.163 HD
BRANCH   6   9
ATOM      9  C   UNL     1      41.794  33.615  15.388  1.00  0.00    +0.076 C 
ATOM     10  C   UNL     1      38.865  36.277  13.311  1.00  0.00    +0.062 A 
ATOM     11  C   UNL     1      38.265  35.413  14.249  1.00  0.00    +0.074 A 
ATOM     12  N   UNL     1      40.188  36.102  13.242  1.00  0.00    -0.172 NA
ATOM     13  C   UNL     1      39.297  34.673  14.776  1.00  0.00    +0.155 A 
ATOM     14  N   UNL     1      40.457  35.120  14.136  1.00  0.00    -0.222 N 
ATOM     15  N   UNL     1      39.320  33.679  15.715  1.00  0.00    -0.236 NA
ATOM     16  C   UNL     1      41.693  34.576  14.455  1.00  0.00    +0.130 C 
ATOM     17  C   UNL     1      40.495  33.189  15.983  1.00  0.00    +0.129 C 
ATOM     18  C   UNL     1      38.201  37.285  12.450  1.00  0.00    +0.069 C 
ENDBRANCH   6   9
ENDBRANCH   4   5
ENDBRANCH   1   4
BRANCH   1  19
ATOM     19  N   UNL     1      47.467  34.415  16.582  1.00  0.00    -0.302 NA
ATOM     20  H   UNL     1      48.138  33.642  16.563  1.00  0.00    +0.123 HD
BRANCH  19  21
ATOM     21  C   UNL     1      48.212  35.659  16.830  1.00  0.00    +0.182 C 
BRANCH  21  22
ATOM     22  C   UNL     1      48.417  35.818  18.342  1.00  0.00    +0.237 C 
ATOM     23  O   UNL     1      48.212  34.877  19.110  1.00  0.00    -0.273 OA
BRANCH  22  24
ATOM     24  N   UNL     1      48.808  37.053  18.807  1.00  0.00    -0.326 N 
ATOM     25  C   UNL     1      50.135  37.641  18.714  1.00  0.00    +0.121 C 
ATOM     26  C   UNL     1      47.874  37.920  19.520  1.00  0.00    +0.189 C 
ATOM     27  C   UNL     1      49.964  39.062  19.234  1.00  0.00    +0.025 C 
ATOM     28  C   UNL     1      48.794  38.937  20.205  1.00  0.00    +0.043 C 
ATOM     29  C   UNL     1      46.925  38.594  18.603  1.00  0.00    +0.087 C 
ATOM     30  N   UNL     1      46.198  39.158  17.893  1.00  0.00    -0.196 NA
ENDBRANCH  22  24
ENDBRANCH  21  22
ENDBRANCH  19  21
ENDBRANCH   1  19
TORSDOF 7
ENDMDL
MODEL 4
REMARK VINA RESULT:    -7.912      1.631      4.321
REMARK INTER + INTRA:         -12.105
REMARK INTER:                 -10.867
REMARK INTRA:                  -1.239
REMARK UNBOUND:                -0.955
REMARK SMILES Cc1cc2ncc(C(=O)NCC(C)(C)NCC(=O)N3CCC[C@H]3C#N)cn2n1
REMARK SMILES IDX 12 1 13 2 14 3 11 4 10 5 8 6 9 7 7 9 2 10 3 11 28 12 4 13
REMARK SMILES IDX 27 14 5 15 26 16 6 17 1 18 15 19 16 21 17 22 18 23 19 24
REMARK SMILES IDX 20 25 23 26 21 27 22 28 24 29 25 30
REMARK H PARENT 10 8 15 20
ROOT
ATOM      1  C   UNL     1      47.530  36.483  18.313  1.00  0.00    +0.030 C 
ATOM      2  C   UNL     1      47.815  36.193  16.829  1.00  0.00    +0.030 C 
ATOM      3  C   UNL     1      48.606  37.464  18.824  1.00  0.00    +0.030 C 
ENDROOT
BRANCH   1   4
ATOM      4  C   UNL     1      46.112  37.109  18.519  1.00  0.00    +0.138 C 
BRANCH   4   5
ATOM      5  N   UNL     1      45.195  36.927  17.402  1.00  0.00    -0.350 N 
ATOM      6  C   UNL     1      44.301  35.885  17.363  1.00  0.00    +0.254 C 
ATOM      7  O   UNL     1      44.209  35.043  18.250  1.00  0.00    -0.269 OA
ATOM      8  H   UNL     1      45.332  37.524  16.598  1.00  0.00    +0.163 HD
BRANCH   6   9
ATOM      9  C   UNL     1      43.461  35.812  16.146  1.00  0.00    +0.076 C 
ATOM     10  C   UNL     1      39.791  36.353  13.652  1.00  0.00    +0.062 A 
ATOM     11  C   UNL     1      40.846  35.723  12.962  1.00  0.00    +0.074 A 
ATOM     12  N   UNL     1      40.127  36.662  14.908  1.00  0.00    -0.172 NA
ATOM     13  C   UNL     1      41.880  35.649  13.864  1.00  0.00    +0.155 A 
ATOM     14  N   UNL     1      41.405  36.233  15.042  1.00  0.00    -0.222 N 
ATOM     15  N   UNL     1      43.149  35.150  13.759  1.00  0.00    -0.236 NA
ATOM     16  C   UNL     1      42.212  36.307  16.169  1.00  0.00    +0.130 C 
ATOM     17  C   UNL     1      43.878  35.242  14.832  1.00  0.00    +0.129 C 
ATOM     18  C   UNL     1      38.440  36.688  13.138  1.00  0.00    +0.069 C 
ENDBRANCH   6   9
ENDBRANCH   4   5
ENDBRANCH   1   4
BRANCH   1  19
ATOM     19  N   UNL     1      47.715  35.257  19.125  1.00  0.00    -0.302 NA
ATOM     20  H   UNL     1      46.814  34.950  19.503  1.00  0.00    +0.123 HD
BRANCH  19  21
ATOM     21  C   UNL     1      48.327  34.117  18.425  1.00  0.00    +0.182 C 
BRANCH  21  22
ATOM     22  C   UNL     1      47.254  33.045  18.195  1.00  0.00    +0.237 C 
ATOM     23  O   UNL     1      46.444  32.761  19.079  1.00  0.00    -0.273 OA
BRANCH  22  24
ATOM     24  N   UNL     1      47.250  32.395  16.982  1.00  0.00    -0.326 N 
ATOM     25  C   UNL     1      48.170  31.355  16.545  1.00  0.00    +0.121 C 
ATOM     26  C   UNL     1      46.287  32.745  15.942  1.00  0.00    +0.189 C 
ATOM     27  C   UNL     1      47.613  30.886  15.208  1.00  0.00    +0.025 C 
ATOM     28  C   UNL     1      46.893  32.123  14.679  1.00  0.00    +0.043 C 
ATOM     29  C   UNL     1      44.941  32.189  16.216  1.00  0.00    +0.087 C 
ATOM     30  N   UNL     1      43.890  31.729  16.398  1.00  0.00    -0.196 NA
ENDBRANCH  22  24
ENDBRANCH  21  22
ENDBRANCH  19  21
ENDBRANCH   1  19
TORSDOF 7
ENDMDL
MODEL 5
REMARK VINA RESULT:    -7.885      2.146      3.798
REMARK INTER + INTRA:         -12.067
REMARK INTER:                 -11.230
REMARK INTRA:                  -0.837
REMARK UNBOUND:                -0.955
REMARK SMILES Cc1cc2ncc(C(=O)NCC(C)(C)NCC(=O)N3CCC[C@H]3C#N)cn2n1
REMARK SMILES IDX 12 1 13 2 14 3 11 4 10 5 8 6 9 7 7 9 2 10 3 11 28 12 4 13
REMARK SMILES IDX 27 14 5 15 26 16 6 17 1 18 15 19 16 21 17 22 18 23 19 24
REMARK SMILES IDX 20 25 23 26 21 27 22 28 24 29 25 30
REMARK H PARENT 10 8 15 20
ROOT
ATOM      1  C   UNL     1      45.799  36.175  17.241  1.00  0.00    +0.030 C 
ATOM      2  C   UNL     1      46.180  35.423  15.954  1.00  0.00    +0.030 C 
ATOM      3  C   UNL     1      45.327  37.591  16.845  1.00  0.00    +0.030 C 
ENDROOT
BRANCH   1   4
ATOM      4  C   UNL     1      44.660  35.445  18.024  1.00  0.00    +0.138 C 
BRANCH   4   5
ATOM      5  N   UNL     1      43.360  35.458  17.366  1.00  0.00    -0.350 N 
ATOM      6  C   UNL     1      42.814  34.320  16.823  1.00  0.00    +0.254 C 
ATOM      7  O   UNL     1      43.370  33.228  16.849  1.00  0.00    -0.269 OA
ATOM      8  H   UNL     1      42.936  36.362  17.212  1.00  0.00    +0.163 HD
BRANCH   6   9
ATOM      9  C   UNL     1      41.504  34.500  16.156  1.00  0.00    +0.076 C 
ATOM     10  C   UNL     1      38.550  36.300  13.325  1.00  0.00    +0.062 A 
ATOM     11  C   UNL     1      37.999  35.290  14.139  1.00  0.00    +0.074 A 
ATOM     12  N   UNL     1      39.850  36.491  13.574  1.00  0.00    -0.172 NA
ATOM     13  C   UNL     1      39.034  34.850  14.927  1.00  0.00    +0.155 A 
ATOM     14  N   UNL     1      40.150  35.605  14.554  1.00  0.00    -0.222 N 
ATOM     15  N   UNL     1      39.099  33.885  15.894  1.00  0.00    -0.236 NA
ATOM     16  C   UNL     1      41.375  35.412  15.178  1.00  0.00    +0.130 C 
ATOM     17  C   UNL     1      40.263  33.727  16.452  1.00  0.00    +0.129 C 
ATOM     18  C   UNL     1      37.865  37.104  12.284  1.00  0.00    +0.069 C 
ENDBRANCH   6   9
ENDBRANCH   4   5
ENDBRANCH   1   4
BRANCH   1  19
ATOM     19  N   UNL     1      46.997  36.395  18.086  1.00  0.00    -0.302 NA
ATOM     20  H   UNL     1      46.907  35.870  18.960  1.00  0.00    +0.123 HD
BRANCH  19  21
ATOM     21  C   UNL     1      48.284  36.039  17.470  1.00  0.00    +0.182 C 
BRANCH  21  22
ATOM     22  C   UNL     1      49.203  35.454  18.550  1.00  0.00    +0.237 C 
ATOM     23  O   UNL     1      49.925  36.186  19.230  1.00  0.00    -0.273 OA
BRANCH  22  24
ATOM     24  N   UNL     1      49.214  34.087  18.710  1.00  0.00    -0.326 N 
ATOM     25  C   UNL     1      50.379  33.242  18.919  1.00  0.00    +0.121 C 
ATOM     26  C   UNL     1      47.980  33.310  18.636  1.00  0.00    +0.189 C 
ATOM     27  C   UNL     1      49.807  31.857  19.191  1.00  0.00    +0.025 C 
ATOM     28  C   UNL     1      48.482  31.876  18.435  1.00  0.00    +0.043 C 
ATOM     29  C   UNL     1      47.173  33.423  19.873  1.00  0.00    +0.087 C 
ATOM     30  N   UNL     1      46.546  33.472  20.851  1.00  0.00    -0.196 NA
ENDBRANCH  22  24
ENDBRANCH  21  22
ENDBRANCH  19  21
ENDBRANCH   1  19
TORSDOF 7
ENDMDL
MODEL 6
REMARK VINA RESULT:    -7.876      6.180      9.200
REMARK INTER + INTRA:         -12.054
REMARK INTER:                 -11.139
REMARK INTRA:                  -0.914
REMARK UNBOUND:                -0.955
REMARK SMILES Cc1cc2ncc(C(=O)NCC(C)(C)NCC(=O)N3CCC[C@H]3C#N)cn2n1
REMARK SMILES IDX 12 1 13 2 14 3 11 4 10 5 8 6 9 7 7 9 2 10 3 11 28 12 4 13
REMARK SMILES IDX 27 14 5 15 26 16 6 17 1 18 15 19 16 21 17 22 18 23 19 24
REMARK SMILES IDX 20 25 23 26 21 27 22 28 24 29 25 30
REMARK H PARENT 10 8 15 20
ROOT
ATOM      1  C   UNL     1      41.783  28.822  13.670  1.00  0.00    +0.030 C 
ATOM      2  C   UNL     1      43.174  28.197  13.478  1.00  0.00    +0.030 C 
ATOM      3  C   UNL     1      41.273  29.289  12.290  1.00  0.00    +0.030 C 
ENDROOT
BRANCH   1   4
ATOM      4  C   UNL     1      40.768  27.803  14.283  1.00  0.00    +0.138 C 
BRANCH   4   5
ATOM      5  N   UNL     1      40.558  27.937  15.719  1.00  0.00    -0.350 N 
ATOM      6  C   UNL     1      41.049  27.014  16.610  1.00  0.00    +0.254 C 
ATOM      7  O   UNL     1      41.689  26.024  16.271  1.00  0.00    -0.269 OA
ATOM      8  H   UNL     1      39.927  28.666  16.021  1.00  0.00    +0.163 HD
BRANCH   6   9
ATOM      9  C   UNL     1      40.722  27.267  18.032  1.00  0.00    +0.076 C 
ATOM     10  C   UNL     1      39.243  29.587  21.555  1.00  0.00    +0.062 A 
ATOM     11  C   UNL     1      39.741  28.313  21.895  1.00  0.00    +0.074 A 
ATOM     12  N   UNL     1      39.316  29.819  20.240  1.00  0.00    -0.172 NA
ATOM     13  C   UNL     1      40.137  27.746  20.707  1.00  0.00    +0.155 A 
ATOM     14  N   UNL     1      39.861  28.694  19.718  1.00  0.00    -0.222 N 
ATOM     15  N   UNL     1      40.684  26.527  20.416  1.00  0.00    -0.236 NA
ATOM     16  C   UNL     1      40.159  28.434  18.387  1.00  0.00    +0.130 C 
ATOM     17  C   UNL     1      40.943  26.315  19.159  1.00  0.00    +0.129 C 
ATOM     18  C   UNL     1      38.680  30.615  22.463  1.00  0.00    +0.069 C 
ENDBRANCH   6   9
ENDBRANCH   4   5
ENDBRANCH   1   4
BRANCH   1  19
ATOM     19  N   UNL     1      41.879  30.060  14.480  1.00  0.00    -0.302 NA
ATOM     20  H   UNL     1      42.707  30.020  15.080  1.00  0.00    +0.123 HD
BRANCH  19  21
ATOM     21  C   UNL     1      41.930  31.317  13.717  1.00  0.00    +0.182 C 
BRANCH  21  22
ATOM     22  C   UNL     1      42.079  32.486  14.699  1.00  0.00    +0.237 C 
ATOM     23  O   UNL     1      42.599  32.320  15.804  1.00  0.00    -0.273 OA
BRANCH  22  24
ATOM     24  N   UNL     1      41.587  33.711  14.314  1.00  0.00    -0.326 N 
ATOM     25  C   UNL     1      41.592  34.272  12.972  1.00  0.00    +0.121 C 
ATOM     26  C   UNL     1      41.017  34.636  15.291  1.00  0.00    +0.189 C 
ATOM     27  C   UNL     1      40.787  35.559  13.088  1.00  0.00    +0.025 C 
ATOM     28  C   UNL     1      41.004  35.972  14.541  1.00  0.00    +0.043 C 
ATOM     29  C   UNL     1      39.649  34.243  15.701  1.00  0.00    +0.087 C 
ATOM     30  N   UNL     1      38.561  33.968  16.005  1.00  0.00    -0.196 NA
ENDBRANCH  22  24
ENDBRANCH  21  22
ENDBRANCH  19  21
ENDBRANCH   1  19
TORSDOF 7
ENDMDL
MODEL 7
REMARK VINA RESULT:    -7.863      2.416      3.441
REMARK INTER + INTRA:         -12.036
REMARK INTER:                 -10.929
REMARK INTRA:                  -1.107
REMARK UNBOUND:                -0.955
REMARK SMILES Cc1cc2ncc(C(=O)NCC(C)(C)NCC(=O)N3CCC[C@H]3C#N)cn2n1
REMARK SMILES IDX 12 1 13 2 14 3 11 4 10 5 8 6 9 7 7 9 2 10 3 11 28 12 4 13
REMARK SMILES IDX 27 14 5 15 26 16 6 17 1 18 15 19 16 21 17 22 18 23 19 24
REMARK SMILES IDX 20 25 23 26 21 27 22 28 24 29 25 30
REMARK H PARENT 10 8 15 20
ROOT
ATOM      1  C   UNL     1      46.441  32.853  14.242  1.00  0.00    +0.030 C 
ATOM      2  C   UNL     1      47.119  32.469  15.568  1.00  0.00    +0.030 C 
ATOM      3  C   UNL     1      47.482  32.708  13.112  1.00  0.00    +0.030 C 
ENDROOT
BRANCH   1   4
ATOM      4  C   UNL     1      45.208  31.942  13.936  1.00  0.00    +0.138 C 
BRANCH   4   5
ATOM      5  N   UNL     1      43.921  32.624  13.967  1.00  0.00    -0.350 N 
ATOM      6  C   UNL     1      43.094  32.557  15.063  1.00  0.00    +0.254 C 
ATOM      7  O   UNL     1      43.372  31.929  16.079  1.00  0.00    -0.269 OA
ATOM      8  H   UNL     1      43.604  33.040  13.102  1.00  0.00    +0.163 HD
BRANCH   6   9
ATOM      9  C   UNL     1      41.803  33.272  14.930  1.00  0.00    +0.076 C 
ATOM     10  C   UNL     1      38.916  36.262  13.287  1.00  0.00    +0.062 A 
ATOM     11  C   UNL     1      38.380  35.486  14.334  1.00  0.00    +0.074 A 
ATOM     12  N   UNL     1      40.179  35.924  13.008  1.00  0.00    -0.172 NA
ATOM     13  C   UNL     1      39.386  34.627  14.705  1.00  0.00    +0.155 A 
ATOM     14  N   UNL     1      40.471  34.922  13.872  1.00  0.00    -0.222 N 
ATOM     15  N   UNL     1      39.444  33.644  15.654  1.00  0.00    -0.236 NA
ATOM     16  C   UNL     1      41.667  34.232  14.000  1.00  0.00    +0.130 C 
ATOM     17  C   UNL     1      40.579  33.014  15.740  1.00  0.00    +0.129 C 
ATOM     18  C   UNL     1      38.246  37.340  12.519  1.00  0.00    +0.069 C 
ENDBRANCH   6   9
ENDBRANCH   4   5
ENDBRANCH   1   4
BRANCH   1  19
ATOM     19  N   UNL     1      46.078  34.291  14.243  1.00  0.00    -0.302 NA
ATOM     20  H   UNL     1      45.093  34.401  14.500  1.00  0.00    +0.123 HD
BRANCH  19  21
ATOM     21  C   UNL     1      46.879  35.148  15.131  1.00  0.00    +0.182 C 
BRANCH  21  22
ATOM     22  C   UNL     1      45.954  35.766  16.188  1.00  0.00    +0.237 C 
ATOM     23  O   UNL     1      44.731  35.642  16.107  1.00  0.00    -0.273 OA
BRANCH  22  24
ATOM     24  N   UNL     1      46.538  36.484  17.206  1.00  0.00    -0.326 N 
ATOM     25  C   UNL     1      46.052  37.726  17.788  1.00  0.00    +0.121 C 
ATOM     26  C   UNL     1      47.801  36.057  17.803  1.00  0.00    +0.189 C 
ATOM     27  C   UNL     1      46.978  37.987  18.968  1.00  0.00    +0.025 C 
ATOM     28  C   UNL     1      48.279  37.311  18.543  1.00  0.00    +0.043 C 
ATOM     29  C   UNL     1      47.622  34.923  18.739  1.00  0.00    +0.087 C 
ATOM     30  N   UNL     1      47.493  34.057  19.504  1.00  0.00    -0.196 NA
ENDBRANCH  22  24
ENDBRANCH  21  22
ENDBRANCH  19  21
ENDBRANCH   1  19
TORSDOF 7
ENDMDL
MODEL 8
REMARK VINA RESULT:    -7.841      4.261      6.638
REMARK INTER + INTRA:         -12.004
REMARK INTER:                 -10.974
REMARK INTRA:                  -1.030
REMARK UNBOUND:                -0.955
REMARK SMILES Cc1cc2ncc(C(=O)NCC(C)(C)NCC(=O)N3CCC[C@H]3C#N)cn2n1
REMARK SMILES IDX 12 1 13 2 14 3 11 4 10 5 8 6 9 7 7 9 2 10 3 11 28 12 4 13
REMARK SMILES IDX 27 14 5 15 26 16 6 17 1 18 15 19 16 21 17 22 18 23 19 24
REMARK SMILES IDX 20 25 23 26 21 27 22 28 24 29 25 30
REMARK H PARENT 10 8 15 20
ROOT
ATOM      1  C   UNL     1      40.657  35.462  14.635  1.00  0.00    +0.030 C 
ATOM      2  C   UNL     1      39.741  36.557  14.063  1.00  0.00    +0.030 C 
ATOM      3  C   UNL     1      39.779  34.245  15.000  1.00  0.00    +0.030 C 
ENDROOT
BRANCH   1   4
ATOM      4  C   UNL     1      41.751  35.025  13.606  1.00  0.00    +0.138 C 
BRANCH   4   5
ATOM      5  N   UNL     1      41.597  33.673  13.086  1.00  0.00    -0.350 N 
ATOM      6  C   UNL     1      42.610  32.748  13.167  1.00  0.00    +0.254 C 
ATOM      7  O   UNL     1      43.701  32.987  13.673  1.00  0.00    -0.269 OA
ATOM      8  H   UNL     1      40.762  33.483  12.549  1.00  0.00    +0.163 HD
BRANCH   6   9
ATOM      9  C   UNL     1      42.316  31.429  12.561  1.00  0.00    +0.076 C 
ATOM     10  C   UNL     1      41.565  28.496   9.273  1.00  0.00    +0.062 A 
ATOM     11  C   UNL     1      41.471  27.928  10.559  1.00  0.00    +0.074 A 
ATOM     12  N   UNL     1      41.870  29.797   9.320  1.00  0.00    -0.172 NA
ATOM     13  C   UNL     1      41.737  28.955  11.433  1.00  0.00    +0.155 A 
ATOM     14  N   UNL     1      41.977  30.082  10.640  1.00  0.00    -0.222 N 
ATOM     15  N   UNL     1      41.796  28.999  12.798  1.00  0.00    -0.236 NA
ATOM     16  C   UNL     1      42.267  31.307  11.224  1.00  0.00    +0.130 C 
ATOM     17  C   UNL     1      42.078  30.161  13.310  1.00  0.00    +0.129 C 
ATOM     18  C   UNL     1      41.377  27.822   7.965  1.00  0.00    +0.069 C 
ENDBRANCH   6   9
ENDBRANCH   4   5
ENDBRANCH   1   4
BRANCH   1  19
ATOM     19  N   UNL     1      41.252  35.902  15.919  1.00  0.00    -0.302 NA
ATOM     20  H   UNL     1      41.056  35.211  16.648  1.00  0.00    +0.123 HD
BRANCH  19  21
ATOM     21  C   UNL     1      42.703  36.144  15.898  1.00  0.00    +0.182 C 
BRANCH  21  22
ATOM     22  C   UNL     1      43.406  34.995  16.632  1.00  0.00    +0.237 C 
ATOM     23  O   UNL     1      42.818  33.935  16.856  1.00  0.00    -0.273 OA
BRANCH  22  24
ATOM     24  N   UNL     1      44.699  35.202  17.055  1.00  0.00    -0.326 N 
ATOM     25  C   UNL     1      45.286  34.768  18.314  1.00  0.00    +0.121 C 
ATOM     26  C   UNL     1      45.645  35.963  16.244  1.00  0.00    +0.189 C 
ATOM     27  C   UNL     1      46.763  35.114  18.189  1.00  0.00    +0.025 C 
ATOM     28  C   UNL     1      46.760  36.306  17.237  1.00  0.00    +0.043 C 
ATOM     29  C   UNL     1      46.170  35.170  15.107  1.00  0.00    +0.087 C 
ATOM     30  N   UNL     1      46.619  34.550  14.232  1.00  0.00    -0.196 NA
ENDBRANCH  22  24
ENDBRANCH  21  22
ENDBRANCH  19  21
ENDBRANCH   1  19
TORSDOF 7
ENDMDL
MODEL 9
REMARK VINA RESULT:    -7.803      6.189      9.236
REMARK INTER + INTRA:         -11.951
REMARK INTER:                 -10.905
REMARK INTRA:                  -1.046
REMARK UNBOUND:                -0.955
REMARK SMILES Cc1cc2ncc(C(=O)NCC(C)(C)NCC(=O)N3CCC[C@H]3C#N)cn2n1
REMARK SMILES IDX 12 1 13 2 14 3 11 4 10 5 8 6 9 7 7 9 2 10 3 11 28 12 4 13
REMARK SMILES IDX 27 14 5 15 26 16 6 17 1 18 15 19 16 21 17 22 18 23 19 24
REMARK SMILES IDX 20 25 23 26 21 27 22 28 24 29 25 30
REMARK H PARENT 10 8 15 20
ROOT
ATOM      1  C   UNL     1      42.576  29.745  11.716  1.00  0.00    +0.030 C 
ATOM      2  C   UNL     1      43.680  28.681  11.840  1.00  0.00    +0.030 C 
ATOM      3  C   UNL     1      42.422  30.104  10.223  1.00  0.00    +0.030 C 
ENDROOT
BRANCH   1   4
ATOM      4  C   UNL     1      41.209  29.227  12.272  1.00  0.00    +0.138 C 
BRANCH   4   5
ATOM      5  N   UNL     1      41.236  28.802  13.665  1.00  0.00    -0.350 N 
ATOM      6  C   UNL     1      40.891  27.525  14.037  1.00  0.00    +0.254 C 
ATOM      7  O   UNL     1      40.539  26.663  13.239  1.00  0.00    -0.269 OA
ATOM      8  H   UNL     1      41.394  29.520  14.358  1.00  0.00    +0.163 HD
BRANCH   6   9
ATOM      9  C   UNL     1      40.932  27.254  15.492  1.00  0.00    +0.076 C 
ATOM     10  C   UNL     1      40.307  28.076  19.841  1.00  0.00    +0.062 A 
ATOM     11  C   UNL     1      40.937  26.840  19.592  1.00  0.00    +0.074 A 
ATOM     12  N   UNL     1      40.024  28.732  18.711  1.00  0.00    -0.172 NA
ATOM     13  C   UNL     1      41.038  26.750  18.225  1.00  0.00    +0.155 A 
ATOM     14  N   UNL     1      40.469  27.923  17.719  1.00  0.00    -0.222 N 
ATOM     15  N   UNL     1      41.549  25.779  17.409  1.00  0.00    -0.236 NA
ATOM     16  C   UNL     1      40.424  28.154  16.351  1.00  0.00    +0.130 C 
ATOM     17  C   UNL     1      41.483  26.026  16.134  1.00  0.00    +0.129 C 
ATOM     18  C   UNL     1      39.949  28.666  21.154  1.00  0.00    +0.069 C 
ENDBRANCH   6   9
ENDBRANCH   4   5
ENDBRANCH   1   4
BRANCH   1  19
ATOM     19  N   UNL     1      42.995  31.007  12.371  1.00  0.00    -0.302 NA
ATOM     20  H   UNL     1      43.882  31.327  11.971  1.00  0.00    +0.123 HD
BRANCH  19  21
ATOM     21  C   UNL     1      42.032  32.115  12.292  1.00  0.00    +0.182 C 
BRANCH  21  22
ATOM     22  C   UNL     1      41.742  32.619  13.712  1.00  0.00    +0.237 C 
ATOM     23  O   UNL     1      41.803  31.857  14.678  1.00  0.00    -0.273 OA
BRANCH  22  24
ATOM     24  N   UNL     1      41.383  33.939  13.861  1.00  0.00    -0.326 N 
ATOM     25  C   UNL     1      41.267  34.936  12.807  1.00  0.00    +0.121 C 
ATOM     26  C   UNL     1      41.111  34.503  15.180  1.00  0.00    +0.189 C 
ATOM     27  C   UNL     1      40.688  36.163  13.499  1.00  0.00    +0.025 C 
ATOM     28  C   UNL     1      41.182  36.014  14.936  1.00  0.00    +0.043 C 
ATOM     29  C   UNL     1      39.778  34.109  15.692  1.00  0.00    +0.087 C 
ATOM     30  N   UNL     1      38.720  33.839  16.092  1.00  0.00    -0.196 NA
ENDBRANCH  22  24
ENDBRANCH  21  22
ENDBRANCH  19  21
ENDBRANCH   1  19
TORSDOF 7
ENDMDL
