MODEL 1
REMARK VINA RESULT:    -8.078      0.000      0.000
REMARK INTER + INTRA:          -9.481
REMARK INTER:                  -9.258
REMARK INTRA:                  -0.223
REMARK UNBOUND:                -0.223
REMARK SMILES O=c1c(-c2ccc(O)cc2)coc2cc(O)cc(O)c12
REMARK SMILES IDX 1 1 2 2 3 3 11 4 12 5 13 6 14 7 15 8 17 9 18 10 20 11 4 12
REMARK SMILES IDX 5 13 10 14 6 15 9 16 7 17 8 18 19 20 16 22
REMARK H PARENT 8 19 19 21 16 23
ROOT
ATOM      1  O   UNL     1      39.953  51.953  35.316  1.00  0.00    -0.288 OA
ATOM      2  C   UNL     1      40.099  50.831  35.792  1.00  0.00    +0.204 C 
ATOM      3  C   UNL     1      41.421  50.155  35.905  1.00  0.00    +0.065 C 
ATOM      4  C   UNL     1      41.430  48.936  36.467  1.00  0.00    +0.208 C 
ATOM      5  O   UNL     1      40.345  48.236  36.935  1.00  0.00    -0.463 OA
ATOM      6  C   UNL     1      39.110  48.826  36.832  1.00  0.00    +0.145 A 
ATOM      7  C   UNL     1      38.019  48.100  37.306  1.00  0.00    +0.094 A 
ATOM      8  C   UNL     1      36.743  48.649  37.228  1.00  0.00    +0.123 A 
ATOM      9  C   UNL     1      36.539  49.914  36.683  1.00  0.00    +0.093 A 
ATOM     10  C   UNL     1      37.634  50.634  36.210  1.00  0.00    +0.134 A 
ATOM     11  C   UNL     1      38.923  50.092  36.282  1.00  0.00    +0.107 A 
ENDROOT
BRANCH   3  12
ATOM     12  C   UNL     1      42.675  50.789  35.456  1.00  0.00    -0.011 A 
ATOM     13  C   UNL     1      43.664  51.165  36.380  1.00  0.00    +0.013 A 
ATOM     14  C   UNL     1      42.907  51.024  34.093  1.00  0.00    +0.013 A 
ATOM     15  C   UNL     1      44.847  51.771  35.950  1.00  0.00    +0.047 A 
ATOM     16  C   UNL     1      44.091  51.627  33.660  1.00  0.00    +0.047 A 
ATOM     17  C   UNL     1      45.052  51.998  34.595  1.00  0.00    +0.115 A 
BRANCH  17  18
ATOM     18  O   UNL     1      46.221  52.588  34.219  1.00  0.00    -0.508 OA
ATOM     19  H   UNL     1      46.921  51.916  34.218  1.00  0.00    +0.293 HD
ENDBRANCH  17  18
ENDBRANCH   3  12
BRANCH  10  20
ATOM     20  O   UNL     1      37.372  51.871  35.684  1.00  0.00    -0.507 OA
ATOM     21  H   UNL     1      38.220  52.370  35.644  1.00  0.00    +0.293 HD
ENDBRANCH  10  20
BRANCH   8  22
ATOM     22  O   UNL     1      35.703  47.907  37.704  1.00  0.00    -0.508 OA
ATOM     23  H   UNL     1      35.646  47.081  37.193  1.00  0.00    +0.293 HD
ENDBRANCH   8  22
TORSDOF 4
ENDMDL
MODEL 2
REMARK VINA RESULT:    -7.493      1.706      6.646
REMARK INTER + INTRA:          -8.811
REMARK INTER:                  -8.576
REMARK INTRA:                  -0.235
REMARK UNBOUND:                -0.223
REMARK SMILES O=c1c(-c2ccc(O)cc2)coc2cc(O)cc(O)c12
REMARK SMILES IDX 1 1 2 2 3 3 11 4 12 5 13 6 14 7 15 8 17 9 18 10 20 11 4 12
REMARK SMILES IDX 5 13 10 14 6 15 9 16 7 17 8 18 19 20 16 22
REMARK H PARENT 8 19 19 21 16 23
ROOT
ATOM      1  O   UNL     1      39.065  52.219  36.450  1.00  0.00    -0.288 OA
ATOM      2  C   UNL     1      40.007  51.437  36.541  1.00  0.00    +0.204 C 
ATOM      3  C   UNL     1      39.839  49.962  36.648  1.00  0.00    +0.065 C 
ATOM      4  C   UNL     1      40.963  49.231  36.719  1.00  0.00    +0.208 C 
ATOM      5  O   UNL     1      42.253  49.700  36.719  1.00  0.00    -0.463 OA
ATOM      6  C   UNL     1      42.441  51.056  36.637  1.00  0.00    +0.145 A 
ATOM      7  C   UNL     1      43.757  51.516  36.644  1.00  0.00    +0.094 A 
ATOM      8  C   UNL     1      44.006  52.883  36.561  1.00  0.00    +0.123 A 
ATOM      9  C   UNL     1      42.962  53.798  36.470  1.00  0.00    +0.093 A 
ATOM     10  C   UNL     1      41.649  53.332  36.464  1.00  0.00    +0.134 A 
ATOM     11  C   UNL     1      41.384  51.960  36.547  1.00  0.00    +0.107 A 
ENDROOT
BRANCH   3  12
ATOM     12  C   UNL     1      38.514  49.314  36.647  1.00  0.00    -0.011 A 
ATOM     13  C   UNL     1      38.010  48.700  37.805  1.00  0.00    +0.013 A 
ATOM     14  C   UNL     1      37.728  49.302  35.485  1.00  0.00    +0.013 A 
ATOM     15  C   UNL     1      36.757  48.082  37.796  1.00  0.00    +0.047 A 
ATOM     16  C   UNL     1      36.472  48.687  35.474  1.00  0.00    +0.047 A 
ATOM     17  C   UNL     1      35.999  48.080  36.633  1.00  0.00    +0.115 A 
BRANCH  17  18
ATOM     18  O   UNL     1      34.781  47.469  36.668  1.00  0.00    -0.508 OA
ATOM     19  H   UNL     1      34.426  47.537  37.569  1.00  0.00    +0.293 HD
ENDBRANCH  17  18
ENDBRANCH   3  12
BRANCH  10  20
ATOM     20  O   UNL     1      40.663  54.279  36.374  1.00  0.00    -0.507 OA
ATOM     21  H   UNL     1      41.003  55.018  35.819  1.00  0.00    +0.293 HD
ENDBRANCH  10  20
BRANCH   8  22
ATOM     22  O   UNL     1      45.307  53.291  36.571  1.00  0.00    -0.508 OA
ATOM     23  H   UNL     1      45.585  53.432  37.493  1.00  0.00    +0.293 HD
ENDBRANCH   8  22
TORSDOF 4
ENDMDL
MODEL 3
REMARK VINA RESULT:    -7.352      1.378      6.796
REMARK INTER + INTRA:          -8.649
REMARK INTER:                  -8.665
REMARK INTRA:                   0.016
REMARK UNBOUND:                -0.223
REMARK SMILES O=c1c(-c2ccc(O)cc2)coc2cc(O)cc(O)c12
REMARK SMILES IDX 1 1 2 2 3 3 11 4 12 5 13 6 14 7 15 8 17 9 18 10 20 11 4 12
REMARK SMILES IDX 5 13 10 14 6 15 9 16 7 17 8 18 19 20 16 22
REMARK H PARENT 8 19 19 21 16 23
ROOT
ATOM      1  O   UNL     1      40.457  50.714  34.650  1.00  0.00    -0.288 OA
ATOM      2  C   UNL     1      41.093  50.392  35.649  1.00  0.00    +0.204 C 
ATOM      3  C   UNL     1      40.505  49.628  36.783  1.00  0.00    +0.065 C 
ATOM      4  C   UNL     1      41.328  49.328  37.801  1.00  0.00    +0.208 C 
ATOM      5  O   UNL     1      42.654  49.666  37.915  1.00  0.00    -0.463 OA
ATOM      6  C   UNL     1      43.221  50.384  36.893  1.00  0.00    +0.145 A 
ATOM      7  C   UNL     1      44.567  50.724  37.028  1.00  0.00    +0.094 A 
ATOM      8  C   UNL     1      45.195  51.451  36.021  1.00  0.00    +0.123 A 
ATOM      9  C   UNL     1      44.501  51.843  34.880  1.00  0.00    +0.093 A 
ATOM     10  C   UNL     1      43.156  51.500  34.752  1.00  0.00    +0.134 A 
ATOM     11  C   UNL     1      42.512  50.770  35.758  1.00  0.00    +0.107 A 
ENDROOT
BRANCH   3  12
ATOM     12  C   UNL     1      39.098  49.185  36.794  1.00  0.00    -0.011 A 
ATOM     13  C   UNL     1      38.069  50.039  36.365  1.00  0.00    +0.013 A 
ATOM     14  C   UNL     1      38.760  47.895  37.231  1.00  0.00    +0.013 A 
ATOM     15  C   UNL     1      36.737  49.615  36.383  1.00  0.00    +0.047 A 
ATOM     16  C   UNL     1      37.429  47.468  37.248  1.00  0.00    +0.047 A 
ATOM     17  C   UNL     1      36.428  48.335  36.824  1.00  0.00    +0.115 A 
BRANCH  17  18
ATOM     18  O   UNL     1      35.117  47.962  36.823  1.00  0.00    -0.508 OA
ATOM     19  H   UNL     1      34.931  47.488  35.997  1.00  0.00    +0.293 HD
ENDBRANCH  17  18
ENDBRANCH   3  12
BRANCH  10  20
ATOM     20  O   UNL     1      42.525  51.915  33.609  1.00  0.00    -0.507 OA
ATOM     21  H   UNL     1      41.594  51.595  33.643  1.00  0.00    +0.293 HD
ENDBRANCH  10  20
BRANCH   8  22
ATOM     22  O   UNL     1      46.512  51.763  36.191  1.00  0.00    -0.508 OA
ATOM     23  H   UNL     1      46.903  51.138  36.824  1.00  0.00    +0.293 HD
ENDBRANCH   8  22
TORSDOF 4
ENDMDL
MODEL 4
REMARK VINA RESULT:    -6.915      4.744      6.988
REMARK INTER + INTRA:          -8.148
REMARK INTER:                  -7.850
REMARK INTRA:                  -0.298
REMARK UNBOUND:                -0.223
REMARK SMILES O=c1c(-c2ccc(O)cc2)coc2cc(O)cc(O)c12
REMARK SMILES IDX 1 1 2 2 3 3 11 4 12 5 13 6 14 7 15 8 17 9 18 10 20 11 4 12
REMARK SMILES IDX 5 13 10 14 6 15 9 16 7 17 8 18 19 20 16 22
REMARK H PARENT 8 19 19 21 16 23
ROOT
ATOM      1  O   UNL     1      39.378  50.087  40.854  1.00  0.00    -0.288 OA
ATOM      2  C   UNL     1      38.440  49.314  41.025  1.00  0.00    +0.204 C 
ATOM      3  C   UNL     1      37.536  48.869  39.929  1.00  0.00    +0.065 C 
ATOM      4  C   UNL     1      36.565  48.003  40.262  1.00  0.00    +0.208 C 
ATOM      5  O   UNL     1      36.305  47.496  41.511  1.00  0.00    -0.463 OA
ATOM      6  C   UNL     1      37.111  47.899  42.545  1.00  0.00    +0.145 A 
ATOM      7  C   UNL     1      36.830  47.379  43.808  1.00  0.00    +0.094 A 
ATOM      8  C   UNL     1      37.617  47.752  44.894  1.00  0.00    +0.123 A 
ATOM      9  C   UNL     1      38.680  48.636  44.739  1.00  0.00    +0.093 A 
ATOM     10  C   UNL     1      38.955  49.152  43.474  1.00  0.00    +0.134 A 
ATOM     11  C   UNL     1      38.172  48.786  42.373  1.00  0.00    +0.107 A 
ENDROOT
BRANCH   3  12
ATOM     12  C   UNL     1      37.701  49.319  38.534  1.00  0.00    -0.011 A 
ATOM     13  C   UNL     1      37.179  50.551  38.108  1.00  0.00    +0.013 A 
ATOM     14  C   UNL     1      38.389  48.525  37.605  1.00  0.00    +0.013 A 
ATOM     15  C   UNL     1      37.333  50.970  36.784  1.00  0.00    +0.047 A 
ATOM     16  C   UNL     1      38.547  48.943  36.281  1.00  0.00    +0.047 A 
ATOM     17  C   UNL     1      38.014  50.164  35.881  1.00  0.00    +0.115 A 
BRANCH  17  18
ATOM     18  O   UNL     1      38.145  50.611  34.601  1.00  0.00    -0.508 OA
ATOM     19  H   UNL     1      39.088  50.629  34.373  1.00  0.00    +0.293 HD
ENDBRANCH  17  18
ENDBRANCH   3  12
BRANCH  10  20
ATOM     20  O   UNL     1      40.013  50.018  43.384  1.00  0.00    -0.507 OA
ATOM     21  H   UNL     1      39.699  50.835  42.931  1.00  0.00    +0.293 HD
ENDBRANCH  10  20
BRANCH   8  22
ATOM     22  O   UNL     1      37.309  47.221  46.112  1.00  0.00    -0.508 OA
ATOM     23  H   UNL     1      38.040  47.400  46.727  1.00  0.00    +0.293 HD
ENDBRANCH   8  22
TORSDOF 4
ENDMDL
MODEL 5
REMARK VINA RESULT:    -6.355      8.795     11.193
REMARK INTER + INTRA:          -7.506
REMARK INTER:                  -7.221
REMARK INTRA:                  -0.285
REMARK UNBOUND:                -0.223
REMARK SMILES O=c1c(-c2ccc(O)cc2)coc2cc(O)cc(O)c12
REMARK SMILES IDX 1 1 2 2 3 3 11 4 12 5 13 6 14 7 15 8 17 9 18 10 20 11 4 12
REMARK SMILES IDX 5 13 10 14 6 15 9 16 7 17 8 18 19 20 16 22
REMARK H PARENT 8 19 19 21 16 23
ROOT
ATOM      1  O   UNL     1      35.331  49.677  43.772  1.00  0.00    -0.288 OA
ATOM      2  C   UNL     1      35.537  50.193  44.866  1.00  0.00    +0.204 C 
ATOM      3  C   UNL     1      35.822  51.643  45.048  1.00  0.00    +0.065 C 
ATOM      4  C   UNL     1      36.006  52.069  46.307  1.00  0.00    +0.208 C 
ATOM      5  O   UNL     1      35.977  51.305  47.448  1.00  0.00    -0.463 OA
ATOM      6  C   UNL     1      35.732  49.962  47.313  1.00  0.00    +0.145 A 
ATOM      7  C   UNL     1      35.712  49.201  48.481  1.00  0.00    +0.094 A 
ATOM      8  C   UNL     1      35.467  47.833  48.404  1.00  0.00    +0.123 A 
ATOM      9  C   UNL     1      35.241  47.213  47.178  1.00  0.00    +0.093 A 
ATOM     10  C   UNL     1      35.264  47.980  46.015  1.00  0.00    +0.134 A 
ATOM     11  C   UNL     1      35.509  49.357  46.078  1.00  0.00    +0.107 A 
ENDROOT
BRANCH   3  12
ATOM     12  C   UNL     1      35.871  52.587  43.916  1.00  0.00    -0.011 A 
ATOM     13  C   UNL     1      34.791  53.442  43.641  1.00  0.00    +0.013 A 
ATOM     14  C   UNL     1      37.005  52.654  43.092  1.00  0.00    +0.013 A 
ATOM     15  C   UNL     1      34.841  54.330  42.564  1.00  0.00    +0.047 A 
ATOM     16  C   UNL     1      37.059  53.544  42.016  1.00  0.00    +0.047 A 
ATOM     17  C   UNL     1      35.973  54.374  41.760  1.00  0.00    +0.115 A 
BRANCH  17  18
ATOM     18  O   UNL     1      35.982  55.257  40.722  1.00  0.00    -0.508 OA
ATOM     19  H   UNL     1      35.707  56.127  41.053  1.00  0.00    +0.293 HD
ENDBRANCH  17  18
ENDBRANCH   3  12
BRANCH  10  20
ATOM     20  O   UNL     1      35.037  47.315  44.839  1.00  0.00    -0.507 OA
ATOM     21  H   UNL     1      35.879  46.882  44.567  1.00  0.00    +0.293 HD
ENDBRANCH  10  20
BRANCH   8  22
ATOM     22  O   UNL     1      35.455  47.124  49.569  1.00  0.00    -0.508 OA
ATOM     23  H   UNL     1      35.150  46.220  49.384  1.00  0.00    +0.293 HD
ENDBRANCH   8  22
TORSDOF 4
ENDMDL
MODEL 6
REMARK VINA RESULT:    -5.985      7.216      9.191
REMARK INTER + INTRA:          -7.082
REMARK INTER:                  -6.797
REMARK INTRA:                  -0.286
REMARK UNBOUND:                -0.223
REMARK SMILES O=c1c(-c2ccc(O)cc2)coc2cc(O)cc(O)c12
REMARK SMILES IDX 1 1 2 2 3 3 11 4 12 5 13 6 14 7 15 8 17 9 18 10 20 11 4 12
REMARK SMILES IDX 5 13 10 14 6 15 9 16 7 17 8 18 19 20 16 22
REMARK H PARENT 8 19 19 21 16 23
ROOT
ATOM      1  O   UNL     1      36.487  51.033  44.427  1.00  0.00    -0.288 OA
ATOM      2  C   UNL     1      36.441  49.825  44.212  1.00  0.00    +0.204 C 
ATOM      3  C   UNL     1      36.978  49.192  42.976  1.00  0.00    +0.065 C 
ATOM      4  C   UNL     1      36.877  47.856  42.889  1.00  0.00    +0.208 C 
ATOM      5  O   UNL     1      36.315  47.010  43.813  1.00  0.00    -0.463 OA
ATOM      6  C   UNL     1      35.798  47.564  44.956  1.00  0.00    +0.145 A 
ATOM      7  C   UNL     1      35.226  46.691  45.881  1.00  0.00    +0.094 A 
ATOM      8  C   UNL     1      34.687  47.198  47.060  1.00  0.00    +0.123 A 
ATOM      9  C   UNL     1      34.710  48.563  47.330  1.00  0.00    +0.093 A 
ATOM     10  C   UNL     1      35.283  49.430  46.401  1.00  0.00    +0.134 A 
ATOM     11  C   UNL     1      35.828  48.933  45.212  1.00  0.00    +0.107 A 
ENDROOT
BRANCH   3  12
ATOM     12  C   UNL     1      37.621  49.973  41.902  1.00  0.00    -0.011 A 
ATOM     13  C   UNL     1      36.852  50.700  40.979  1.00  0.00    +0.013 A 
ATOM     14  C   UNL     1      39.019  50.009  41.786  1.00  0.00    +0.013 A 
ATOM     15  C   UNL     1      37.467  51.433  39.960  1.00  0.00    +0.047 A 
ATOM     16  C   UNL     1      39.636  50.744  40.770  1.00  0.00    +0.047 A 
ATOM     17  C   UNL     1      38.852  51.448  39.863  1.00  0.00    +0.115 A 
BRANCH  17  18
ATOM     18  O   UNL     1      39.411  52.178  38.857  1.00  0.00    -0.508 OA
ATOM     19  H   UNL     1      39.649  53.053  39.204  1.00  0.00    +0.293 HD
ENDBRANCH  17  18
ENDBRANCH   3  12
BRANCH  10  20
ATOM     20  O   UNL     1      35.275  50.761  46.722  1.00  0.00    -0.507 OA
ATOM     21  H   UNL     1      34.354  51.094  46.616  1.00  0.00    +0.293 HD
ENDBRANCH  10  20
BRANCH   8  22
ATOM     22  O   UNL     1      34.138  46.311  47.938  1.00  0.00    -0.508 OA
ATOM     23  H   UNL     1      34.714  46.243  48.718  1.00  0.00    +0.293 HD
ENDBRANCH   8  22
TORSDOF 4
ENDMDL
MODEL 7
REMARK VINA RESULT:    -5.920      6.512     10.147
REMARK INTER + INTRA:          -7.008
REMARK INTER:                  -6.710
REMARK INTRA:                  -0.299
REMARK UNBOUND:                -0.223
REMARK SMILES O=c1c(-c2ccc(O)cc2)coc2cc(O)cc(O)c12
REMARK SMILES IDX 1 1 2 2 3 3 11 4 12 5 13 6 14 7 15 8 17 9 18 10 20 11 4 12
REMARK SMILES IDX 5 13 10 14 6 15 9 16 7 17 8 18 19 20 16 22
REMARK H PARENT 8 19 19 21 16 23
ROOT
ATOM      1  O   UNL     1      39.281  49.097  44.062  1.00  0.00    -0.288 OA
ATOM      2  C   UNL     1      38.549  48.925  43.091  1.00  0.00    +0.204 C 
ATOM      3  C   UNL     1      37.155  48.414  43.197  1.00  0.00    +0.065 C 
ATOM      4  C   UNL     1      36.466  48.297  42.051  1.00  0.00    +0.208 C 
ATOM      5  O   UNL     1      36.917  48.582  40.786  1.00  0.00    -0.463 OA
ATOM      6  C   UNL     1      38.203  49.041  40.653  1.00  0.00    +0.145 A 
ATOM      7  C   UNL     1      38.646  49.321  39.361  1.00  0.00    +0.094 A 
ATOM      8  C   UNL     1      39.942  49.791  39.167  1.00  0.00    +0.123 A 
ATOM      9  C   UNL     1      40.802  49.986  40.244  1.00  0.00    +0.093 A 
ATOM     10  C   UNL     1      40.353  49.703  41.532  1.00  0.00    +0.134 A 
ATOM     11  C   UNL     1      39.052  49.230  41.741  1.00  0.00    +0.107 A 
ENDROOT
BRANCH   3  12
ATOM     12  C   UNL     1      36.532  48.077  44.491  1.00  0.00    -0.011 A 
ATOM     13  C   UNL     1      35.939  49.071  45.286  1.00  0.00    +0.013 A 
ATOM     14  C   UNL     1      36.515  46.752  44.951  1.00  0.00    +0.013 A 
ATOM     15  C   UNL     1      35.355  48.747  46.514  1.00  0.00    +0.047 A 
ATOM     16  C   UNL     1      35.929  46.425  46.177  1.00  0.00    +0.047 A 
ATOM     17  C   UNL     1      35.355  47.429  46.950  1.00  0.00    +0.115 A 
BRANCH  17  18
ATOM     18  O   UNL     1      34.772  47.156  48.151  1.00  0.00    -0.508 OA
ATOM     19  H   UNL     1      35.074  46.283  48.451  1.00  0.00    +0.293 HD
ENDBRANCH  17  18
ENDBRANCH   3  12
BRANCH  10  20
ATOM     20  O   UNL     1      41.244  49.913  42.550  1.00  0.00    -0.507 OA
ATOM     21  H   UNL     1      42.068  50.288  42.161  1.00  0.00    +0.293 HD
ENDBRANCH  10  20
BRANCH   8  22
ATOM     22  O   UNL     1      40.336  50.053  37.888  1.00  0.00    -0.508 OA
ATOM     23  H   UNL     1      39.623  49.794  37.280  1.00  0.00    +0.293 HD
ENDBRANCH   8  22
TORSDOF 4
ENDMDL
