MODEL 1
REMARK VINA RESULT:    -8.650      0.000      0.000
REMARK INTER + INTRA:         -11.986
REMARK INTER:                 -11.179
REMARK INTRA:                  -0.808
REMARK UNBOUND:                -0.808
REMARK SMILES Cc1cc(N2CCN([C@@H]3CN[C@H](C(=O)N4CCSC4)C3)CC2)n(-c2ccccc2)n1
REMARK SMILES IDX 5 1 6 2 7 3 8 4 21 5 22 6 4 7 2 8 3 9 30 10 23 11 1 12 24 13
REMARK SMILES IDX 25 14 29 15 26 16 28 17 27 18 9 19 10 20 20 21 11 22 12 23
REMARK SMILES IDX 13 25 14 26 15 27 16 28 19 29 17 30 18 31
REMARK H PARENT 11 24
ROOT
ATOM      1  N   UNL     1      42.049  32.661  14.306  1.00  0.00    -0.354 N 
ATOM      2  C   UNL     1      42.792  32.048  13.169  1.00  0.00    +0.133 C 
ATOM      3  C   UNL     1      42.371  30.578  12.957  1.00  0.00    +0.106 C 
ATOM      4  N   UNL     1      42.669  29.698  14.113  1.00  0.00    -0.296 NA
ATOM      5  C   UNL     1      42.581  30.457  15.383  1.00  0.00    +0.106 C 
ATOM      6  C   UNL     1      41.646  31.686  15.345  1.00  0.00    +0.133 C 
ENDROOT
BRANCH   1   7
ATOM      7  C   UNL     1      42.526  33.890  14.706  1.00  0.00    +0.132 A 
ATOM      8  C   UNL     1      43.785  35.622  15.302  1.00  0.00    +0.062 A 
ATOM      9  C   UNL     1      43.743  34.218  15.266  1.00  0.00    +0.072 A 
ATOM     10  N   UNL     1      42.668  36.165  14.819  1.00  0.00    -0.171 NA
ATOM     11  N   UNL     1      41.839  35.109  14.556  1.00  0.00    -0.217 N 
ATOM     12  C   UNL     1      44.894  36.491  15.765  1.00  0.00    +0.069 C 
BRANCH  11  13
ATOM     13  C   UNL     1      40.472  35.364  14.226  1.00  0.00    +0.067 A 
ATOM     14  C   UNL     1      39.419  34.726  14.893  1.00  0.00    +0.028 A 
ATOM     15  C   UNL     1      40.173  36.315  13.236  1.00  0.00    +0.028 A 
ATOM     16  C   UNL     1      38.092  35.012  14.554  1.00  0.00    +0.002 A 
ATOM     17  C   UNL     1      38.846  36.595  12.899  1.00  0.00    +0.002 A 
ATOM     18  C   UNL     1      37.807  35.940  13.555  1.00  0.00    +0.000 A 
ENDBRANCH  11  13
ENDBRANCH   1   7
BRANCH   4  19
ATOM     19  C   UNL     1      41.860  28.470  14.099  1.00  0.00    +0.072 C 
ATOM     20  C   UNL     1      42.604  27.162  14.413  1.00  0.00    +0.100 C 
ATOM     21  C   UNL     1      41.260  28.151  12.721  1.00  0.00    +0.049 C 
ATOM     22  N   UNL     1      41.679  26.116  13.950  1.00  0.00    -0.304 NA
ATOM     23  C   UNL     1      41.156  26.624  12.659  1.00  0.00    +0.145 C 
ATOM     24  H   UNL     1      40.907  26.049  14.614  1.00  0.00    +0.123 HD
BRANCH  23  25
ATOM     25  C   UNL     1      41.973  26.068  11.460  1.00  0.00    +0.240 C 
ATOM     26  O   UNL     1      42.932  25.306  11.602  1.00  0.00    -0.273 OA
BRANCH  25  27
ATOM     27  N   UNL     1      41.609  26.519  10.197  1.00  0.00    -0.331 N 
ATOM     28  C   UNL     1      42.398  27.559   9.555  1.00  0.00    +0.131 C 
ATOM     29  C   UNL     1      40.765  25.786   9.279  1.00  0.00    +0.189 C 
ATOM     30  C   UNL     1      41.566  28.165   8.441  1.00  0.00    +0.093 C 
ATOM     31  S   UNL     1      40.648  26.760   7.761  1.00  0.00    -0.139 SA
ENDBRANCH  25  27
ENDBRANCH  23  25
ENDBRANCH   4  19
TORSDOF 5
ENDMDL
MODEL 2
REMARK VINA RESULT:    -8.586      4.760      9.588
REMARK INTER + INTRA:         -11.904
REMARK INTER:                 -11.394
REMARK INTRA:                  -0.510
REMARK UNBOUND:                -0.808
REMARK SMILES Cc1cc(N2CCN([C@@H]3CN[C@H](C(=O)N4CCSC4)C3)CC2)n(-c2ccccc2)n1
REMARK SMILES IDX 5 1 6 2 7 3 8 4 21 5 22 6 4 7 2 8 3 9 30 10 23 11 1 12 24 13
REMARK SMILES IDX 25 14 29 15 26 16 28 17 27 18 9 19 10 20 20 21 11 22 12 23
REMARK SMILES IDX 13 25 14 26 15 27 16 28 19 29 17 30 18 31
REMARK H PARENT 11 24
ROOT
ATOM      1  N   UNL     1      42.300  30.851  13.966  1.00  0.00    -0.354 N 
ATOM      2  C   UNL     1      43.714  30.683  14.404  1.00  0.00    +0.133 C 
ATOM      3  C   UNL     1      44.019  31.547  15.647  1.00  0.00    +0.106 C 
ATOM      4  N   UNL     1      43.872  33.004  15.413  1.00  0.00    -0.296 NA
ATOM      5  C   UNL     1      42.820  33.268  14.404  1.00  0.00    +0.106 C 
ATOM      6  C   UNL     1      41.730  32.178  14.297  1.00  0.00    +0.133 C 
ENDROOT
BRANCH   1   7
ATOM      7  C   UNL     1      42.010  30.299  12.738  1.00  0.00    +0.132 A 
ATOM      8  C   UNL     1      41.911  29.778  10.579  1.00  0.00    +0.062 A 
ATOM      9  C   UNL     1      42.193  30.824  11.475  1.00  0.00    +0.072 A 
ATOM     10  N   UNL     1      41.553  28.663  11.213  1.00  0.00    -0.171 NA
ATOM     11  N   UNL     1      41.498  29.003  12.537  1.00  0.00    -0.217 N 
ATOM     12  C   UNL     1      42.003  29.796   9.100  1.00  0.00    +0.069 C 
BRANCH  11  13
ATOM     13  C   UNL     1      40.932  28.080  13.470  1.00  0.00    +0.067 A 
ATOM     14  C   UNL     1      40.911  26.701  13.226  1.00  0.00    +0.028 A 
ATOM     15  C   UNL     1      40.422  28.562  14.687  1.00  0.00    +0.028 A 
ATOM     16  C   UNL     1      40.363  25.825  14.168  1.00  0.00    +0.002 A 
ATOM     17  C   UNL     1      39.873  27.684  15.624  1.00  0.00    +0.002 A 
ATOM     18  C   UNL     1      39.840  26.316  15.363  1.00  0.00    +0.000 A 
ENDBRANCH  11  13
ENDBRANCH   1   7
BRANCH   4  19
ATOM     19  C   UNL     1      43.692  33.752  16.667  1.00  0.00    +0.072 C 
ATOM     20  C   UNL     1      42.834  35.025  16.583  1.00  0.00    +0.100 C 
ATOM     21  C   UNL     1      45.004  34.311  17.238  1.00  0.00    +0.049 C 
ATOM     22  N   UNL     1      43.151  35.741  17.828  1.00  0.00    -0.304 NA
ATOM     23  C   UNL     1      44.618  35.593  17.981  1.00  0.00    +0.145 C 
ATOM     24  H   UNL     1      42.690  35.263  18.603  1.00  0.00    +0.123 HD
BRANCH  23  25
ATOM     25  C   UNL     1      45.374  36.816  17.392  1.00  0.00    +0.240 C 
ATOM     26  O   UNL     1      44.899  37.530  16.506  1.00  0.00    -0.273 OA
BRANCH  25  27
ATOM     27  N   UNL     1      46.658  37.044  17.872  1.00  0.00    -0.331 N 
ATOM     28  C   UNL     1      46.834  37.558  19.222  1.00  0.00    +0.131 C 
ATOM     29  C   UNL     1      47.855  36.450  17.320  1.00  0.00    +0.189 C 
ATOM     30  C   UNL     1      48.236  38.125  19.332  1.00  0.00    +0.093 C 
ATOM     31  S   UNL     1      49.247  37.006  18.331  1.00  0.00    -0.139 SA
ENDBRANCH  25  27
ENDBRANCH  23  25
ENDBRANCH   4  19
TORSDOF 5
ENDMDL
MODEL 3
REMARK VINA RESULT:    -8.586      1.678      3.684
REMARK INTER + INTRA:         -11.904
REMARK INTER:                 -11.056
REMARK INTRA:                  -0.848
REMARK UNBOUND:                -0.808
REMARK SMILES Cc1cc(N2CCN([C@@H]3CN[C@H](C(=O)N4CCSC4)C3)CC2)n(-c2ccccc2)n1
REMARK SMILES IDX 5 1 6 2 7 3 8 4 21 5 22 6 4 7 2 8 3 9 30 10 23 11 1 12 24 13
REMARK SMILES IDX 25 14 29 15 26 16 28 17 27 18 9 19 10 20 20 21 11 22 12 23
REMARK SMILES IDX 13 25 14 26 15 27 16 28 19 29 17 30 18 31
REMARK H PARENT 11 24
ROOT
ATOM      1  N   UNL     1      42.005  33.195  14.334  1.00  0.00    -0.354 N 
ATOM      2  C   UNL     1      41.240  32.187  15.120  1.00  0.00    +0.133 C 
ATOM      3  C   UNL     1      41.840  30.774  14.947  1.00  0.00    +0.106 C 
ATOM      4  N   UNL     1      41.793  30.272  13.552  1.00  0.00    -0.296 NA
ATOM      5  C   UNL     1      41.907  31.392  12.589  1.00  0.00    +0.106 C 
ATOM      6  C   UNL     1      42.650  32.638  13.122  1.00  0.00    +0.133 C 
ENDROOT
BRANCH   1   7
ATOM      7  C   UNL     1      41.404  34.432  14.249  1.00  0.00    +0.132 A 
ATOM      8  C   UNL     1      40.014  36.133  13.909  1.00  0.00    +0.062 A 
ATOM      9  C   UNL     1      40.341  34.838  13.469  1.00  0.00    +0.072 A 
ATOM     10  N   UNL     1      40.818  36.543  14.889  1.00  0.00    -0.171 NA
ATOM     11  N   UNL     1      41.750  35.551  15.028  1.00  0.00    -0.217 N 
ATOM     12  C   UNL     1      38.912  37.005  13.437  1.00  0.00    +0.069 C 
BRANCH  11  13
ATOM     13  C   UNL     1      42.892  35.782  15.857  1.00  0.00    +0.067 A 
ATOM     14  C   UNL     1      42.852  35.584  17.242  1.00  0.00    +0.028 A 
ATOM     15  C   UNL     1      44.102  36.175  15.260  1.00  0.00    +0.028 A 
ATOM     16  C   UNL     1      43.994  35.804  18.020  1.00  0.00    +0.002 A 
ATOM     17  C   UNL     1      45.239  36.396  16.042  1.00  0.00    +0.002 A 
ATOM     18  C   UNL     1      45.183  36.215  17.421  1.00  0.00    +0.000 A 
ENDBRANCH  11  13
ENDBRANCH   1   7
BRANCH   4  19
ATOM     19  C   UNL     1      42.762  29.190  13.320  1.00  0.00    +0.072 C 
ATOM     20  C   UNL     1      44.146  29.614  12.805  1.00  0.00    +0.100 C 
ATOM     21  C   UNL     1      42.325  28.204  12.226  1.00  0.00    +0.049 C 
ATOM     22  N   UNL     1      44.732  28.361  12.305  1.00  0.00    -0.304 NA
ATOM     23  C   UNL     1      43.620  27.687  11.592  1.00  0.00    +0.145 C 
ATOM     24  H   UNL     1      45.004  27.789  13.105  1.00  0.00    +0.123 HD
BRANCH  23  25
ATOM     25  C   UNL     1      43.649  28.004  10.071  1.00  0.00    +0.240 C 
ATOM     26  O   UNL     1      44.422  28.827   9.576  1.00  0.00    -0.273 OA
BRANCH  25  27
ATOM     27  N   UNL     1      42.711  27.350   9.282  1.00  0.00    -0.331 N 
ATOM     28  C   UNL     1      42.546  25.911   9.414  1.00  0.00    +0.131 C 
ATOM     29  C   UNL     1      41.598  28.000   8.627  1.00  0.00    +0.189 C 
ATOM     30  C   UNL     1      41.825  25.402   8.181  1.00  0.00    +0.093 C 
ATOM     31  S   UNL     1      40.643  26.716   7.786  1.00  0.00    -0.139 SA
ENDBRANCH  25  27
ENDBRANCH  23  25
ENDBRANCH   4  19
TORSDOF 5
ENDMDL
MODEL 4
REMARK VINA RESULT:    -8.487      2.015      2.331
REMARK INTER + INTRA:         -11.776
REMARK INTER:                 -11.022
REMARK INTRA:                  -0.755
REMARK UNBOUND:                -0.808
REMARK SMILES Cc1cc(N2CCN([C@@H]3CN[C@H](C(=O)N4CCSC4)C3)CC2)n(-c2ccccc2)n1
REMARK SMILES IDX 5 1 6 2 7 3 8 4 21 5 22 6 4 7 2 8 3 9 30 10 23 11 1 12 24 13
REMARK SMILES IDX 25 14 29 15 26 16 28 17 27 18 9 19 10 20 20 21 11 22 12 23
REMARK SMILES IDX 13 25 14 26 15 27 16 28 19 29 17 30 18 31
REMARK H PARENT 11 24
ROOT
ATOM      1  N   UNL     1      41.744  32.664  14.419  1.00  0.00    -0.354 N 
ATOM      2  C   UNL     1      42.508  32.616  13.141  1.00  0.00    +0.133 C 
ATOM      3  C   UNL     1      42.306  31.264  12.422  1.00  0.00    +0.106 C 
ATOM      4  N   UNL     1      42.799  30.097  13.194  1.00  0.00    -0.296 NA
ATOM      5  C   UNL     1      42.666  30.340  14.650  1.00  0.00    +0.106 C 
ATOM      6  C   UNL     1      41.552  31.335  15.046  1.00  0.00    +0.133 C 
ENDROOT
BRANCH   1   7
ATOM      7  C   UNL     1      42.048  33.735  15.229  1.00  0.00    +0.132 A 
ATOM      8  C   UNL     1      43.028  35.210  16.574  1.00  0.00    +0.062 A 
ATOM      9  C   UNL     1      43.032  33.858  16.188  1.00  0.00    +0.072 A 
ATOM     10  N   UNL     1      42.095  35.908  15.928  1.00  0.00    -0.171 NA
ATOM     11  N   UNL     1      41.410  34.989  15.182  1.00  0.00    -0.217 N 
ATOM     12  C   UNL     1      43.924  35.885  17.542  1.00  0.00    +0.069 C 
BRANCH  11  13
ATOM     13  C   UNL     1      40.200  35.385  14.532  1.00  0.00    +0.067 A 
ATOM     14  C   UNL     1      38.966  34.803  14.848  1.00  0.00    +0.028 A 
ATOM     15  C   UNL     1      40.240  36.418  13.580  1.00  0.00    +0.028 A 
ATOM     16  C   UNL     1      37.799  35.227  14.202  1.00  0.00    +0.002 A 
ATOM     17  C   UNL     1      39.073  36.835  12.936  1.00  0.00    +0.002 A 
ATOM     18  C   UNL     1      37.854  36.237  13.245  1.00  0.00    +0.000 A 
ENDBRANCH  11  13
ENDBRANCH   1   7
BRANCH   4  19
ATOM     19  C   UNL     1      42.188  28.837  12.745  1.00  0.00    +0.072 C 
ATOM     20  C   UNL     1      43.125  27.623  12.648  1.00  0.00    +0.100 C 
ATOM     21  C   UNL     1      41.634  28.904  11.313  1.00  0.00    +0.049 C 
ATOM     22  N   UNL     1      42.369  26.663  11.829  1.00  0.00    -0.304 NA
ATOM     23  C   UNL     1      41.765  27.485  10.753  1.00  0.00    +0.145 C 
ATOM     24  H   UNL     1      41.621  26.269  12.400  1.00  0.00    +0.123 HD
BRANCH  23  25
ATOM     25  C   UNL     1      42.649  27.481   9.475  1.00  0.00    +0.240 C 
ATOM     26  O   UNL     1      42.193  27.268   8.349  1.00  0.00    -0.273 OA
BRANCH  25  27
ATOM     27  N   UNL     1      44.013  27.674   9.661  1.00  0.00    -0.331 N 
ATOM     28  C   UNL     1      44.911  26.532   9.586  1.00  0.00    +0.131 C 
ATOM     29  C   UNL     1      44.685  28.947   9.525  1.00  0.00    +0.189 C 
ATOM     30  C   UNL     1      46.221  26.917  10.247  1.00  0.00    +0.093 C 
ATOM     31  S   UNL     1      46.448  28.657   9.800  1.00  0.00    -0.139 SA
ENDBRANCH  25  27
ENDBRANCH  23  25
ENDBRANCH   4  19
TORSDOF 5
ENDMDL
MODEL 5
REMARK VINA RESULT:    -8.450      5.651      9.714
REMARK INTER + INTRA:         -11.728
REMARK INTER:                 -11.087
REMARK INTRA:                  -0.641
REMARK UNBOUND:                -0.808
REMARK SMILES Cc1cc(N2CCN([C@@H]3CN[C@H](C(=O)N4CCSC4)C3)CC2)n(-c2ccccc2)n1
REMARK SMILES IDX 5 1 6 2 7 3 8 4 21 5 22 6 4 7 2 8 3 9 30 10 23 11 1 12 24 13
REMARK SMILES IDX 25 14 29 15 26 16 28 17 27 18 9 19 10 20 20 21 11 22 12 23
REMARK SMILES IDX 13 25 14 26 15 27 16 28 19 29 17 30 18 31
REMARK H PARENT 11 24
ROOT
ATOM      1  N   UNL     1      42.573  35.569  15.609  1.00  0.00    -0.354 N 
ATOM      2  C   UNL     1      42.323  35.063  16.988  1.00  0.00    +0.133 C 
ATOM      3  C   UNL     1      43.649  34.810  17.737  1.00  0.00    +0.106 C 
ATOM      4  N   UNL     1      44.502  33.771  17.108  1.00  0.00    -0.296 NA
ATOM      5  C   UNL     1      44.314  33.760  15.639  1.00  0.00    +0.106 C 
ATOM      6  C   UNL     1      43.855  35.104  15.029  1.00  0.00    +0.133 C 
ENDROOT
BRANCH   1   7
ATOM      7  C   UNL     1      41.459  35.602  14.799  1.00  0.00    +0.132 A 
ATOM      8  C   UNL     1      39.729  36.201  13.538  1.00  0.00    +0.062 A 
ATOM      9  C   UNL     1      40.550  36.620  14.600  1.00  0.00    +0.072 A 
ATOM     10  N   UNL     1      40.068  34.991  13.096  1.00  0.00    -0.171 NA
ATOM     11  N   UNL     1      41.057  34.564  13.939  1.00  0.00    -0.217 N 
ATOM     12  C   UNL     1      38.621  36.945  12.893  1.00  0.00    +0.069 C 
BRANCH  11  13
ATOM     13  C   UNL     1      41.492  33.204  13.867  1.00  0.00    +0.067 A 
ATOM     14  C   UNL     1      42.207  32.713  12.768  1.00  0.00    +0.028 A 
ATOM     15  C   UNL     1      41.235  32.345  14.949  1.00  0.00    +0.028 A 
ATOM     16  C   UNL     1      42.631  31.380  12.739  1.00  0.00    +0.002 A 
ATOM     17  C   UNL     1      41.658  31.013  14.914  1.00  0.00    +0.002 A 
ATOM     18  C   UNL     1      42.352  30.531  13.808  1.00  0.00    +0.000 A 
ENDBRANCH  11  13
ENDBRANCH   1   7
BRANCH   4  19
ATOM     19  C   UNL     1      45.908  33.881  17.526  1.00  0.00    +0.072 C 
ATOM     20  C   UNL     1      46.155  34.297  18.984  1.00  0.00    +0.100 C 
ATOM     21  C   UNL     1      46.686  34.968  16.768  1.00  0.00    +0.049 C 
ATOM     22  N   UNL     1      47.570  34.698  18.999  1.00  0.00    -0.304 NA
ATOM     23  C   UNL     1      47.750  35.473  17.747  1.00  0.00    +0.145 C 
ATOM     24  H   UNL     1      48.145  33.857  18.950  1.00  0.00    +0.123 HD
BRANCH  23  25
ATOM     25  C   UNL     1      47.585  36.997  17.997  1.00  0.00    +0.240 C 
ATOM     26  O   UNL     1      46.599  37.633  17.617  1.00  0.00    -0.273 OA
BRANCH  25  27
ATOM     27  N   UNL     1      48.641  37.642  18.629  1.00  0.00    -0.331 N 
ATOM     28  C   UNL     1      48.389  38.398  19.846  1.00  0.00    +0.131 C 
ATOM     29  C   UNL     1      50.036  37.315  18.431  1.00  0.00    +0.189 C 
ATOM     30  C   UNL     1      49.560  39.336  20.070  1.00  0.00    +0.093 C 
ATOM     31  S   UNL     1      51.000  38.386  19.522  1.00  0.00    -0.139 SA
ENDBRANCH  25  27
ENDBRANCH  23  25
ENDBRANCH   4  19
TORSDOF 5
ENDMDL
MODEL 6
REMARK VINA RESULT:    -8.321      2.901      4.136
REMARK INTER + INTRA:         -11.561
REMARK INTER:                 -10.719
REMARK INTRA:                  -0.843
REMARK UNBOUND:                -0.808
REMARK SMILES Cc1cc(N2CCN([C@@H]3CN[C@H](C(=O)N4CCSC4)C3)CC2)n(-c2ccccc2)n1
REMARK SMILES IDX 5 1 6 2 7 3 8 4 21 5 22 6 4 7 2 8 3 9 30 10 23 11 1 12 24 13
REMARK SMILES IDX 25 14 29 15 26 16 28 17 27 18 9 19 10 20 20 21 11 22 12 23
REMARK SMILES IDX 13 25 14 26 15 27 16 28 19 29 17 30 18 31
REMARK H PARENT 11 24
ROOT
ATOM      1  N   UNL     1      42.172  32.680  14.569  1.00  0.00    -0.354 N 
ATOM      2  C   UNL     1      42.350  32.545  13.095  1.00  0.00    +0.133 C 
ATOM      3  C   UNL     1      42.150  31.082  12.643  1.00  0.00    +0.106 C 
ATOM      4  N   UNL     1      43.135  30.137  13.226  1.00  0.00    -0.296 NA
ATOM      5  C   UNL     1      43.553  30.584  14.575  1.00  0.00    +0.106 C 
ATOM      6  C   UNL     1      42.519  31.454  15.324  1.00  0.00    +0.133 C 
ENDROOT
BRANCH   1   7
ATOM      7  C   UNL     1      42.555  33.900  15.082  1.00  0.00    +0.132 A 
ATOM      8  C   UNL     1      43.678  35.641  15.888  1.00  0.00    +0.062 A 
ATOM      9  C   UNL     1      43.705  34.241  15.765  1.00  0.00    +0.072 A 
ATOM     10  N   UNL     1      42.581  36.168  15.344  1.00  0.00    -0.171 NA
ATOM     11  N   UNL     1      41.828  35.097  14.947  1.00  0.00    -0.217 N 
ATOM     12  C   UNL     1      44.702  36.523  16.497  1.00  0.00    +0.069 C 
BRANCH  11  13
ATOM     13  C   UNL     1      40.483  35.316  14.514  1.00  0.00    +0.067 A 
ATOM     14  C   UNL     1      39.409  34.589  15.042  1.00  0.00    +0.028 A 
ATOM     15  C   UNL     1      40.224  36.320  13.566  1.00  0.00    +0.028 A 
ATOM     16  C   UNL     1      38.104  34.841  14.607  1.00  0.00    +0.002 A 
ATOM     17  C   UNL     1      38.919  36.566  13.133  1.00  0.00    +0.002 A 
ATOM     18  C   UNL     1      37.860  35.824  13.650  1.00  0.00    +0.000 A 
ENDBRANCH  11  13
ENDBRANCH   1   7
BRANCH   4  19
ATOM     19  C   UNL     1      42.660  28.745  13.183  1.00  0.00    +0.072 C 
ATOM     20  C   UNL     1      41.219  28.532  12.695  1.00  0.00    +0.100 C 
ATOM     21  C   UNL     1      42.611  28.075  14.565  1.00  0.00    +0.049 C 
ATOM     22  N   UNL     1      40.904  27.161  13.122  1.00  0.00    -0.304 NA
ATOM     23  C   UNL     1      41.468  27.058  14.490  1.00  0.00    +0.145 C 
ATOM     24  H   UNL     1      41.399  26.510  12.513  1.00  0.00    +0.123 HD
BRANCH  23  25
ATOM     25  C   UNL     1      40.393  27.363  15.569  1.00  0.00    +0.240 C 
ATOM     26  O   UNL     1      39.360  27.991  15.323  1.00  0.00    -0.273 OA
BRANCH  25  27
ATOM     27  N   UNL     1      40.673  26.942  16.863  1.00  0.00    -0.331 N 
ATOM     28  C   UNL     1      41.608  25.846  17.069  1.00  0.00    +0.131 C 
ATOM     29  C   UNL     1      40.443  27.736  18.050  1.00  0.00    +0.189 C 
ATOM     30  C   UNL     1      41.399  25.305  18.471  1.00  0.00    +0.093 C 
ATOM     31  S   UNL     1      41.031  26.773  19.463  1.00  0.00    -0.139 SA
ENDBRANCH  25  27
ENDBRANCH  23  25
ENDBRANCH   4  19
TORSDOF 5
ENDMDL
MODEL 7
REMARK VINA RESULT:    -8.269      4.616      7.996
REMARK INTER + INTRA:         -11.494
REMARK INTER:                 -10.665
REMARK INTRA:                  -0.829
REMARK UNBOUND:                -0.808
REMARK SMILES Cc1cc(N2CCN([C@@H]3CN[C@H](C(=O)N4CCSC4)C3)CC2)n(-c2ccccc2)n1
REMARK SMILES IDX 5 1 6 2 7 3 8 4 21 5 22 6 4 7 2 8 3 9 30 10 23 11 1 12 24 13
REMARK SMILES IDX 25 14 29 15 26 16 28 17 27 18 9 19 10 20 20 21 11 22 12 23
REMARK SMILES IDX 13 25 14 26 15 27 16 28 19 29 17 30 18 31
REMARK H PARENT 11 24
ROOT
ATOM      1  N   UNL     1      43.088  35.008  15.159  1.00  0.00    -0.354 N 
ATOM      2  C   UNL     1      44.152  36.014  14.879  1.00  0.00    +0.133 C 
ATOM      3  C   UNL     1      45.316  35.888  15.886  1.00  0.00    +0.106 C 
ATOM      4  N   UNL     1      44.919  36.147  17.292  1.00  0.00    -0.296 NA
ATOM      5  C   UNL     1      43.516  35.734  17.524  1.00  0.00    +0.106 C 
ATOM      6  C   UNL     1      43.000  34.620  16.586  1.00  0.00    +0.133 C 
ENDROOT
BRANCH   1   7
ATOM      7  C   UNL     1      41.919  35.200  14.456  1.00  0.00    +0.132 A 
ATOM      8  C   UNL     1      40.073  36.020  13.529  1.00  0.00    +0.062 A 
ATOM      9  C   UNL     1      40.943  36.161  14.624  1.00  0.00    +0.072 A 
ATOM     10  N   UNL     1      40.445  35.027  12.721  1.00  0.00    -0.171 NA
ATOM     11  N   UNL     1      41.514  34.442  13.342  1.00  0.00    -0.217 N 
ATOM     12  C   UNL     1      38.882  36.839  13.199  1.00  0.00    +0.069 C 
BRANCH  11  13
ATOM     13  C   UNL     1      42.018  33.203  12.837  1.00  0.00    +0.067 A 
ATOM     14  C   UNL     1      41.502  32.612  11.677  1.00  0.00    +0.028 A 
ATOM     15  C   UNL     1      43.093  32.581  13.495  1.00  0.00    +0.028 A 
ATOM     16  C   UNL     1      42.030  31.407  11.202  1.00  0.00    +0.002 A 
ATOM     17  C   UNL     1      43.615  31.376  13.019  1.00  0.00    +0.002 A 
ATOM     18  C   UNL     1      43.081  30.788  11.875  1.00  0.00    +0.000 A 
ENDBRANCH  11  13
ENDBRANCH   1   7
BRANCH   4  19
ATOM     19  C   UNL     1      45.874  35.572  18.252  1.00  0.00    +0.072 C 
ATOM     20  C   UNL     1      47.204  36.323  18.422  1.00  0.00    +0.100 C 
ATOM     21  C   UNL     1      46.368  34.172  17.856  1.00  0.00    +0.049 C 
ATOM     22  N   UNL     1      48.071  35.348  19.100  1.00  0.00    -0.304 NA
ATOM     23  C   UNL     1      47.788  34.061  18.420  1.00  0.00    +0.145 C 
ATOM     24  H   UNL     1      47.778  35.276  20.074  1.00  0.00    +0.123 HD
BRANCH  23  25
ATOM     25  C   UNL     1      48.809  33.786  17.281  1.00  0.00    +0.240 C 
ATOM     26  O   UNL     1      50.027  33.892  17.438  1.00  0.00    -0.273 OA
BRANCH  25  27
ATOM     27  N   UNL     1      48.281  33.466  16.036  1.00  0.00    -0.331 N 
ATOM     28  C   UNL     1      48.586  34.312  14.893  1.00  0.00    +0.131 C 
ATOM     29  C   UNL     1      47.786  32.157  15.670  1.00  0.00    +0.189 C 
ATOM     30  C   UNL     1      47.569  34.022  13.806  1.00  0.00    +0.093 C 
ATOM     31  S   UNL     1      47.275  32.241  13.938  1.00  0.00    -0.139 SA
ENDBRANCH  25  27
ENDBRANCH  23  25
ENDBRANCH   4  19
TORSDOF 5
ENDMDL
MODEL 8
REMARK VINA RESULT:    -8.099      4.625      8.258
REMARK INTER + INTRA:         -11.275
REMARK INTER:                  -9.876
REMARK INTRA:                  -1.398
REMARK UNBOUND:                -0.808
REMARK SMILES Cc1cc(N2CCN([C@@H]3CN[C@H](C(=O)N4CCSC4)C3)CC2)n(-c2ccccc2)n1
REMARK SMILES IDX 5 1 6 2 7 3 8 4 21 5 22 6 4 7 2 8 3 9 30 10 23 11 1 12 24 13
REMARK SMILES IDX 25 14 29 15 26 16 28 17 27 18 9 19 10 20 20 21 11 22 12 23
REMARK SMILES IDX 13 25 14 26 15 27 16 28 19 29 17 30 18 31
REMARK H PARENT 11 24
ROOT
ATOM      1  N   UNL     1      44.374  32.708  14.762  1.00  0.00    -0.354 N 
ATOM      2  C   UNL     1      44.251  31.840  15.967  1.00  0.00    +0.133 C 
ATOM      3  C   UNL     1      45.178  32.329  17.101  1.00  0.00    +0.106 C 
ATOM      4  N   UNL     1      46.620  32.285  16.756  1.00  0.00    -0.296 NA
ATOM      5  C   UNL     1      46.817  32.518  15.306  1.00  0.00    +0.106 C 
ATOM      6  C   UNL     1      45.705  33.342  14.620  1.00  0.00    +0.133 C 
ENDROOT
BRANCH   1   7
ATOM      7  C   UNL     1      43.759  32.211  13.634  1.00  0.00    +0.132 A 
ATOM      8  C   UNL     1      43.097  30.978  11.906  1.00  0.00    +0.062 A 
ATOM      9  C   UNL     1      44.180  31.224  12.767  1.00  0.00    +0.072 A 
ATOM     10  N   UNL     1      42.055  31.763  12.181  1.00  0.00    -0.171 NA
ATOM     11  N   UNL     1      42.491  32.605  13.167  1.00  0.00    -0.217 N 
ATOM     12  C   UNL     1      43.004  29.974  10.820  1.00  0.00    +0.069 C 
BRANCH  11  13
ATOM     13  C   UNL     1      41.675  33.719  13.539  1.00  0.00    +0.067 A 
ATOM     14  C   UNL     1      41.569  34.860  12.734  1.00  0.00    +0.028 A 
ATOM     15  C   UNL     1      40.923  33.651  14.724  1.00  0.00    +0.028 A 
ATOM     16  C   UNL     1      40.749  35.925  13.122  1.00  0.00    +0.002 A 
ATOM     17  C   UNL     1      40.108  34.719  15.110  1.00  0.00    +0.002 A 
ATOM     18  C   UNL     1      40.025  35.856  14.310  1.00  0.00    +0.000 A 
ENDBRANCH  11  13
ENDBRANCH   1   7
BRANCH   4  19
ATOM     19  C   UNL     1      47.423  33.169  17.613  1.00  0.00    +0.072 C 
ATOM     20  C   UNL     1      46.898  33.395  19.040  1.00  0.00    +0.100 C 
ATOM     21  C   UNL     1      47.507  34.613  17.092  1.00  0.00    +0.049 C 
ATOM     22  N   UNL     1      47.642  34.577  19.503  1.00  0.00    -0.304 NA
ATOM     23  C   UNL     1      47.648  35.493  18.337  1.00  0.00    +0.145 C 
ATOM     24  H   UNL     1      48.601  34.297  19.705  1.00  0.00    +0.123 HD
BRANCH  23  25
ATOM     25  C   UNL     1      46.483  36.518  18.418  1.00  0.00    +0.240 C 
ATOM     26  O   UNL     1      46.502  37.493  19.173  1.00  0.00    -0.273 OA
BRANCH  25  27
ATOM     27  N   UNL     1      45.369  36.256  17.630  1.00  0.00    -0.331 N 
ATOM     28  C   UNL     1      44.157  35.748  18.254  1.00  0.00    +0.131 C 
ATOM     29  C   UNL     1      45.149  36.811  16.312  1.00  0.00    +0.189 C 
ATOM     30  C   UNL     1      43.286  35.141  17.171  1.00  0.00    +0.093 C 
ATOM     31  S   UNL     1      43.538  36.223  15.742  1.00  0.00    -0.139 SA
ENDBRANCH  25  27
ENDBRANCH  23  25
ENDBRANCH   4  19
TORSDOF 5
ENDMDL
MODEL 9
REMARK VINA RESULT:    -8.020      2.652      4.378
REMARK INTER + INTRA:         -11.172
REMARK INTER:                 -10.150
REMARK INTRA:                  -1.023
REMARK UNBOUND:                -0.808
REMARK SMILES Cc1cc(N2CCN([C@@H]3CN[C@H](C(=O)N4CCSC4)C3)CC2)n(-c2ccccc2)n1
REMARK SMILES IDX 5 1 6 2 7 3 8 4 21 5 22 6 4 7 2 8 3 9 30 10 23 11 1 12 24 13
REMARK SMILES IDX 25 14 29 15 26 16 28 17 27 18 9 19 10 20 20 21 11 22 12 23
REMARK SMILES IDX 13 25 14 26 15 27 16 28 19 29 17 30 18 31
REMARK H PARENT 11 24
ROOT
ATOM      1  N   UNL     1      41.987  33.163  14.262  1.00  0.00    -0.354 N 
ATOM      2  C   UNL     1      41.234  32.184  15.096  1.00  0.00    +0.133 C 
ATOM      3  C   UNL     1      41.786  30.754  14.910  1.00  0.00    +0.106 C 
ATOM      4  N   UNL     1      41.657  30.240  13.524  1.00  0.00    -0.296 NA
ATOM      5  C   UNL     1      41.754  31.347  12.544  1.00  0.00    +0.106 C 
ATOM      6  C   UNL     1      42.556  32.576  13.026  1.00  0.00    +0.133 C 
ENDROOT
BRANCH   1   7
ATOM      7  C   UNL     1      41.417  34.415  14.192  1.00  0.00    +0.132 A 
ATOM      8  C   UNL     1      40.065  36.153  13.884  1.00  0.00    +0.062 A 
ATOM      9  C   UNL     1      40.352  34.853  13.432  1.00  0.00    +0.072 A 
ATOM     10  N   UNL     1      40.897  36.538  14.851  1.00  0.00    -0.171 NA
ATOM     11  N   UNL     1      41.805  35.522  14.970  1.00  0.00    -0.217 N 
ATOM     12  C   UNL     1      38.979  37.056  13.434  1.00  0.00    +0.069 C 
BRANCH  11  13
ATOM     13  C   UNL     1      42.966  35.719  15.780  1.00  0.00    +0.067 A 
ATOM     14  C   UNL     1      44.189  36.125  15.233  1.00  0.00    +0.028 A 
ATOM     15  C   UNL     1      42.868  35.546  17.171  1.00  0.00    +0.028 A 
ATOM     16  C   UNL     1      45.301  36.324  16.058  1.00  0.00    +0.002 A 
ATOM     17  C   UNL     1      43.983  35.742  17.991  1.00  0.00    +0.002 A 
ATOM     18  C   UNL     1      45.199  36.127  17.433  1.00  0.00    +0.000 A 
ENDBRANCH  11  13
ENDBRANCH   1   7
BRANCH   4  19
ATOM     19  C   UNL     1      42.583  29.128  13.257  1.00  0.00    +0.072 C 
ATOM     20  C   UNL     1      44.079  29.477  13.248  1.00  0.00    +0.100 C 
ATOM     21  C   UNL     1      42.409  28.512  11.860  1.00  0.00    +0.049 C 
ATOM     22  N   UNL     1      44.703  28.319  12.588  1.00  0.00    -0.304 NA
ATOM     23  C   UNL     1      43.796  27.999  11.460  1.00  0.00    +0.145 C 
ATOM     24  H   UNL     1      44.704  27.536  13.241  1.00  0.00    +0.123 HD
BRANCH  23  25
ATOM     25  C   UNL     1      44.270  28.675  10.144  1.00  0.00    +0.240 C 
ATOM     26  O   UNL     1      43.558  29.445   9.495  1.00  0.00    -0.273 OA
BRANCH  25  27
ATOM     27  N   UNL     1      45.535  28.327   9.686  1.00  0.00    -0.331 N 
ATOM     28  C   UNL     1      46.654  29.223   9.933  1.00  0.00    +0.131 C 
ATOM     29  C   UNL     1      45.937  26.982   9.340  1.00  0.00    +0.189 C 
ATOM     30  C   UNL     1      47.775  28.851   8.981  1.00  0.00    +0.093 C 
ATOM     31  S   UNL     1      47.682  27.047   8.870  1.00  0.00    -0.139 SA
ENDBRANCH  25  27
ENDBRANCH  23  25
ENDBRANCH   4  19
TORSDOF 5
ENDMDL
