MODEL 1
REMARK VINA RESULT:    -8.398      0.000      0.000
REMARK INTER + INTRA:         -11.942
REMARK INTER:                 -10.852
REMARK INTRA:                  -1.090
REMARK UNBOUND:                -1.090
REMARK SMILES Cc1cc(N2CCN([C@H]3CN[C@H](C(=O)N4CCSC4)C3)CC2)n(-c2ccccc2)n1
REMARK SMILES IDX 5 1 6 2 7 3 8 4 21 5 22 6 4 7 2 8 3 9 30 10 23 11 1 12 24 13
REMARK SMILES IDX 25 14 29 15 26 16 28 17 27 18 9 19 10 20 20 21 11 22 12 23
REMARK SMILES IDX 13 25 14 26 15 27 16 28 19 29 17 30 18 31
REMARK H PARENT 11 24
ROOT
ATOM      1  N   UNL     1      38.782  50.103  36.423  1.00  0.00    -0.354 N 
ATOM      2  C   UNL     1      40.072  49.376  36.590  1.00  0.00    +0.133 C 
ATOM      3  C   UNL     1      41.090  49.709  35.474  1.00  0.00    +0.106 C 
ATOM      4  N   UNL     1      41.351  51.147  35.263  1.00  0.00    -0.296 NA
ATOM      5  C   UNL     1      40.187  51.985  35.608  1.00  0.00    +0.106 C 
ATOM      6  C   UNL     1      38.840  51.239  35.475  1.00  0.00    +0.133 C 
ENDROOT
BRANCH   1   7
ATOM      7  C   UNL     1      37.631  49.348  36.459  1.00  0.00    +0.132 A 
ATOM      8  C   UNL     1      35.935  47.985  35.996  1.00  0.00    +0.062 A 
ATOM      9  C   UNL     1      36.866  48.867  35.416  1.00  0.00    +0.072 A 
ATOM     10  N   UNL     1      36.055  47.940  37.326  1.00  0.00    -0.171 NA
ATOM     11  N   UNL     1      37.004  48.875  37.630  1.00  0.00    -0.217 N 
ATOM     12  C   UNL     1      34.918  47.149  35.306  1.00  0.00    +0.069 C 
BRANCH  11  13
ATOM     13  C   UNL     1      37.192  49.257  38.995  1.00  0.00    +0.067 A 
ATOM     14  C   UNL     1      37.339  50.597  39.376  1.00  0.00    +0.028 A 
ATOM     15  C   UNL     1      37.185  48.265  39.988  1.00  0.00    +0.028 A 
ATOM     16  C   UNL     1      37.518  50.934  40.719  1.00  0.00    +0.002 A 
ATOM     17  C   UNL     1      37.370  48.607  41.326  1.00  0.00    +0.002 A 
ATOM     18  C   UNL     1      37.542  49.940  41.693  1.00  0.00    +0.000 A 
ENDBRANCH  11  13
ENDBRANCH   1   7
BRANCH   4  19
ATOM     19  C   UNL     1      42.646  51.599  35.789  1.00  0.00    +0.072 C 
ATOM     20  C   UNL     1      43.651  52.133  34.761  1.00  0.00    +0.100 C 
ATOM     21  C   UNL     1      42.624  52.726  36.830  1.00  0.00    +0.049 C 
ATOM     22  N   UNL     1      44.700  52.706  35.602  1.00  0.00    -0.304 NA
ATOM     23  C   UNL     1      44.032  53.329  36.765  1.00  0.00    +0.145 C 
ATOM     24  H   UNL     1      45.294  53.361  35.099  1.00  0.00    +0.123 HD
BRANCH  23  25
ATOM     25  C   UNL     1      44.817  53.057  38.073  1.00  0.00    +0.240 C 
ATOM     26  O   UNL     1      45.802  53.724  38.404  1.00  0.00    -0.273 OA
BRANCH  25  27
ATOM     27  N   UNL     1      44.397  51.978  38.845  1.00  0.00    -0.331 N 
ATOM     28  C   UNL     1      44.949  50.657  38.582  1.00  0.00    +0.131 C 
ATOM     29  C   UNL     1      43.750  52.092  40.135  1.00  0.00    +0.189 C 
ATOM     30  C   UNL     1      44.064  49.620  39.251  1.00  0.00    +0.093 C 
ATOM     31  S   UNL     1      43.529  50.419  40.784  1.00  0.00    -0.139 SA
ENDBRANCH  25  27
ENDBRANCH  23  25
ENDBRANCH   4  19
TORSDOF 5
ENDMDL
MODEL 2
REMARK VINA RESULT:    -8.020      4.786      8.612
REMARK INTER + INTRA:         -11.454
REMARK INTER:                 -10.423
REMARK INTRA:                  -1.031
REMARK UNBOUND:                -1.090
REMARK SMILES Cc1cc(N2CCN([C@H]3CN[C@H](C(=O)N4CCSC4)C3)CC2)n(-c2ccccc2)n1
REMARK SMILES IDX 5 1 6 2 7 3 8 4 21 5 22 6 4 7 2 8 3 9 30 10 23 11 1 12 24 13
REMARK SMILES IDX 25 14 29 15 26 16 28 17 27 18 9 19 10 20 20 21 11 22 12 23
REMARK SMILES IDX 13 25 14 26 15 27 16 28 19 29 17 30 18 31
REMARK H PARENT 11 24
ROOT
ATOM      1  N   UNL     1      39.175  50.330  39.680  1.00  0.00    -0.354 N 
ATOM      2  C   UNL     1      39.478  49.343  40.754  1.00  0.00    +0.133 C 
ATOM      3  C   UNL     1      39.489  49.983  42.162  1.00  0.00    +0.106 C 
ATOM      4  N   UNL     1      38.281  50.754  42.518  1.00  0.00    -0.296 NA
ATOM      5  C   UNL     1      37.626  51.346  41.336  1.00  0.00    +0.106 C 
ATOM      6  C   UNL     1      38.601  51.605  40.166  1.00  0.00    +0.133 C 
ENDROOT
BRANCH   1   7
ATOM      7  C   UNL     1      40.044  50.376  38.612  1.00  0.00    +0.132 A 
ATOM      8  C   UNL     1      41.826  50.558  37.294  1.00  0.00    +0.062 A 
ATOM      9  C   UNL     1      41.269  51.004  38.506  1.00  0.00    +0.072 A 
ATOM     10  N   UNL     1      40.998  49.741  36.637  1.00  0.00    -0.171 NA
ATOM     11  N   UNL     1      39.848  49.730  37.374  1.00  0.00    -0.217 N 
ATOM     12  C   UNL     1      43.164  50.880  36.732  1.00  0.00    +0.069 C 
BRANCH  11  13
ATOM     13  C   UNL     1      38.668  49.147  36.815  1.00  0.00    +0.067 A 
ATOM     14  C   UNL     1      38.078  49.645  35.647  1.00  0.00    +0.028 A 
ATOM     15  C   UNL     1      38.110  48.016  37.429  1.00  0.00    +0.028 A 
ATOM     16  C   UNL     1      36.926  49.049  35.127  1.00  0.00    +0.002 A 
ATOM     17  C   UNL     1      36.958  47.427  36.910  1.00  0.00    +0.002 A 
ATOM     18  C   UNL     1      36.362  47.947  35.762  1.00  0.00    +0.000 A 
ENDBRANCH  11  13
ENDBRANCH   1   7
BRANCH   4  19
ATOM     19  C   UNL     1      37.395  50.064  43.465  1.00  0.00    +0.072 C 
ATOM     20  C   UNL     1      35.897  50.082  43.137  1.00  0.00    +0.100 C 
ATOM     21  C   UNL     1      37.651  48.569  43.703  1.00  0.00    +0.049 C 
ATOM     22  N   UNL     1      35.342  49.138  44.104  1.00  0.00    -0.304 NA
ATOM     23  C   UNL     1      36.321  48.039  44.249  1.00  0.00    +0.145 C 
ATOM     24  H   UNL     1      34.418  48.803  43.841  1.00  0.00    +0.123 HD
BRANCH  23  25
ATOM     25  C   UNL     1      36.457  47.603  45.729  1.00  0.00    +0.240 C 
ATOM     26  O   UNL     1      36.775  46.455  46.054  1.00  0.00    -0.273 OA
BRANCH  25  27
ATOM     27  N   UNL     1      36.150  48.557  46.695  1.00  0.00    -0.331 N 
ATOM     28  C   UNL     1      34.920  48.419  47.462  1.00  0.00    +0.131 C 
ATOM     29  C   UNL     1      37.106  49.468  47.287  1.00  0.00    +0.189 C 
ATOM     30  C   UNL     1      34.617  49.748  48.133  1.00  0.00    +0.093 C 
ATOM     31  S   UNL     1      36.246  50.402  48.574  1.00  0.00    -0.139 SA
ENDBRANCH  25  27
ENDBRANCH  23  25
ENDBRANCH   4  19
TORSDOF 5
ENDMDL
MODEL 3
REMARK VINA RESULT:    -7.727      6.333      9.602
REMARK INTER + INTRA:         -11.075
REMARK INTER:                 -10.274
REMARK INTRA:                  -0.802
REMARK UNBOUND:                -1.090
REMARK SMILES Cc1cc(N2CCN([C@H]3CN[C@H](C(=O)N4CCSC4)C3)CC2)n(-c2ccccc2)n1
REMARK SMILES IDX 5 1 6 2 7 3 8 4 21 5 22 6 4 7 2 8 3 9 30 10 23 11 1 12 24 13
REMARK SMILES IDX 25 14 29 15 26 16 28 17 27 18 9 19 10 20 20 21 11 22 12 23
REMARK SMILES IDX 13 25 14 26 15 27 16 28 19 29 17 30 18 31
REMARK H PARENT 11 24
ROOT
ATOM      1  N   UNL     1      35.456  52.240  45.456  1.00  0.00    -0.354 N 
ATOM      2  C   UNL     1      34.981  52.724  44.130  1.00  0.00    +0.133 C 
ATOM      3  C   UNL     1      36.143  53.132  43.195  1.00  0.00    +0.106 C 
ATOM      4  N   UNL     1      37.194  52.111  43.008  1.00  0.00    -0.296 NA
ATOM      5  C   UNL     1      37.336  51.231  44.183  1.00  0.00    +0.106 C 
ATOM      6  C   UNL     1      36.897  51.903  45.503  1.00  0.00    +0.133 C 
ENDROOT
BRANCH   1   7
ATOM      7  C   UNL     1      34.890  52.819  46.571  1.00  0.00    +0.132 A 
ATOM      8  C   UNL     1      33.824  54.150  47.998  1.00  0.00    +0.062 A 
ATOM      9  C   UNL     1      34.565  54.140  46.802  1.00  0.00    +0.072 A 
ATOM     10  N   UNL     1      33.721  52.930  48.530  1.00  0.00    -0.171 NA
ATOM     11  N   UNL     1      34.486  52.127  47.731  1.00  0.00    -0.217 N 
ATOM     12  C   UNL     1      33.178  55.314  48.661  1.00  0.00    +0.069 C 
BRANCH  11  13
ATOM     13  C   UNL     1      34.794  50.801  48.168  1.00  0.00    +0.067 A 
ATOM     14  C   UNL     1      34.472  49.675  47.398  1.00  0.00    +0.028 A 
ATOM     15  C   UNL     1      35.476  50.622  49.380  1.00  0.00    +0.028 A 
ATOM     16  C   UNL     1      34.789  48.393  47.854  1.00  0.00    +0.002 A 
ATOM     17  C   UNL     1      35.786  49.341  49.833  1.00  0.00    +0.002 A 
ATOM     18  C   UNL     1      35.438  48.225  49.073  1.00  0.00    +0.000 A 
ENDBRANCH  11  13
ENDBRANCH   1   7
BRANCH   4  19
ATOM     19  C   UNL     1      37.140  51.437  41.703  1.00  0.00    +0.072 C 
ATOM     20  C   UNL     1      36.194  52.043  40.660  1.00  0.00    +0.100 C 
ATOM     21  C   UNL     1      38.454  51.328  40.917  1.00  0.00    +0.049 C 
ATOM     22  N   UNL     1      36.546  51.316  39.442  1.00  0.00    -0.304 NA
ATOM     23  C   UNL     1      38.010  51.113  39.466  1.00  0.00    +0.145 C 
ATOM     24  H   UNL     1      36.232  51.788  38.597  1.00  0.00    +0.123 HD
BRANCH  23  25
ATOM     25  C   UNL     1      38.387  49.695  38.970  1.00  0.00    +0.240 C 
ATOM     26  O   UNL     1      39.243  49.004  39.531  1.00  0.00    -0.273 OA
BRANCH  25  27
ATOM     27  N   UNL     1      37.752  49.243  37.817  1.00  0.00    -0.331 N 
ATOM     28  C   UNL     1      38.396  49.443  36.527  1.00  0.00    +0.131 C 
ATOM     29  C   UNL     1      36.694  48.255  37.793  1.00  0.00    +0.189 C 
ATOM     30  C   UNL     1      37.361  49.245  35.434  1.00  0.00    +0.093 C 
ATOM     31  S   UNL     1      36.305  47.915  36.060  1.00  0.00    -0.139 SA
ENDBRANCH  25  27
ENDBRANCH  23  25
ENDBRANCH   4  19
TORSDOF 5
ENDMDL
MODEL 4
REMARK VINA RESULT:    -7.252      5.421      8.855
REMARK INTER + INTRA:         -10.462
REMARK INTER:                  -9.455
REMARK INTRA:                  -1.007
REMARK UNBOUND:                -1.090
REMARK SMILES Cc1cc(N2CCN([C@H]3CN[C@H](C(=O)N4CCSC4)C3)CC2)n(-c2ccccc2)n1
REMARK SMILES IDX 5 1 6 2 7 3 8 4 21 5 22 6 4 7 2 8 3 9 30 10 23 11 1 12 24 13
REMARK SMILES IDX 25 14 29 15 26 16 28 17 27 18 9 19 10 20 20 21 11 22 12 23
REMARK SMILES IDX 13 25 14 26 15 27 16 28 19 29 17 30 18 31
REMARK H PARENT 11 24
ROOT
ATOM      1  N   UNL     1      38.598  49.689  44.772  1.00  0.00    -0.354 N 
ATOM      2  C   UNL     1      38.014  48.976  43.602  1.00  0.00    +0.133 C 
ATOM      3  C   UNL     1      36.582  49.456  43.268  1.00  0.00    +0.106 C 
ATOM      4  N   UNL     1      36.427  50.914  43.094  1.00  0.00    -0.296 NA
ATOM      5  C   UNL     1      37.399  51.682  43.894  1.00  0.00    +0.106 C 
ATOM      6  C   UNL     1      37.880  50.926  45.154  1.00  0.00    +0.133 C 
ENDROOT
BRANCH   1   7
ATOM      7  C   UNL     1      39.125  48.910  45.778  1.00  0.00    +0.132 A 
ATOM      8  C   UNL     1      40.441  47.956  47.296  1.00  0.00    +0.062 A 
ATOM      9  C   UNL     1      40.443  48.596  46.043  1.00  0.00    +0.072 A 
ATOM     10  N   UNL     1      39.205  47.817  47.782  1.00  0.00    -0.171 NA
ATOM     11  N   UNL     1      38.380  48.280  46.796  1.00  0.00    -0.217 N 
ATOM     12  C   UNL     1      41.612  47.472  48.074  1.00  0.00    +0.069 C 
BRANCH  11  13
ATOM     13  C   UNL     1      36.974  48.041  46.896  1.00  0.00    +0.067 A 
ATOM     14  C   UNL     1      36.331  47.068  46.120  1.00  0.00    +0.028 A 
ATOM     15  C   UNL     1      36.224  48.772  47.829  1.00  0.00    +0.028 A 
ATOM     16  C   UNL     1      34.956  46.860  46.245  1.00  0.00    +0.002 A 
ATOM     17  C   UNL     1      34.850  48.564  47.947  1.00  0.00    +0.002 A 
ATOM     18  C   UNL     1      34.214  47.612  47.151  1.00  0.00    +0.000 A 
ENDBRANCH  11  13
ENDBRANCH   1   7
BRANCH   4  19
ATOM     19  C   UNL     1      36.276  51.331  41.693  1.00  0.00    +0.072 C 
ATOM     20  C   UNL     1      36.187  52.840  41.436  1.00  0.00    +0.100 C 
ATOM     21  C   UNL     1      37.378  50.905  40.713  1.00  0.00    +0.049 C 
ATOM     22  N   UNL     1      36.287  52.927  39.980  1.00  0.00    -0.304 NA
ATOM     23  C   UNL     1      37.253  51.895  39.549  1.00  0.00    +0.145 C 
ATOM     24  H   UNL     1      36.543  53.858  39.658  1.00  0.00    +0.123 HD
BRANCH  23  25
ATOM     25  C   UNL     1      36.773  51.183  38.260  1.00  0.00    +0.240 C 
ATOM     26  O   UNL     1      35.717  51.480  37.694  1.00  0.00    -0.273 OA
BRANCH  25  27
ATOM     27  N   UNL     1      37.565  50.140  37.786  1.00  0.00    -0.331 N 
ATOM     28  C   UNL     1      36.928  48.905  37.355  1.00  0.00    +0.131 C 
ATOM     29  C   UNL     1      38.927  50.287  37.319  1.00  0.00    +0.189 C 
ATOM     30  C   UNL     1      37.985  47.817  37.275  1.00  0.00    +0.093 C 
ATOM     31  S   UNL     1      39.464  48.680  36.688  1.00  0.00    -0.139 SA
ENDBRANCH  25  27
ENDBRANCH  23  25
ENDBRANCH   4  19
TORSDOF 5
ENDMDL
MODEL 5
REMARK VINA RESULT:    -7.251      5.077      8.174
REMARK INTER + INTRA:         -10.460
REMARK INTER:                  -9.420
REMARK INTRA:                  -1.040
REMARK UNBOUND:                -1.090
REMARK SMILES Cc1cc(N2CCN([C@H]3CN[C@H](C(=O)N4CCSC4)C3)CC2)n(-c2ccccc2)n1
REMARK SMILES IDX 5 1 6 2 7 3 8 4 21 5 22 6 4 7 2 8 3 9 30 10 23 11 1 12 24 13
REMARK SMILES IDX 25 14 29 15 26 16 28 17 27 18 9 19 10 20 20 21 11 22 12 23
REMARK SMILES IDX 13 25 14 26 15 27 16 28 19 29 17 30 18 31
REMARK H PARENT 11 24
ROOT
ATOM      1  N   UNL     1      38.140  48.771  44.128  1.00  0.00    -0.354 N 
ATOM      2  C   UNL     1      38.989  49.561  43.192  1.00  0.00    +0.133 C 
ATOM      3  C   UNL     1      39.023  48.958  41.769  1.00  0.00    +0.106 C 
ATOM      4  N   UNL     1      37.704  48.705  41.155  1.00  0.00    -0.296 NA
ATOM      5  C   UNL     1      36.664  48.414  42.161  1.00  0.00    +0.106 C 
ATOM      6  C   UNL     1      37.232  47.809  43.464  1.00  0.00    +0.133 C 
ENDROOT
BRANCH   1   7
ATOM      7  C   UNL     1      38.710  48.402  45.327  1.00  0.00    +0.132 A 
ATOM      8  C   UNL     1      40.107  47.963  47.001  1.00  0.00    +0.062 A 
ATOM      9  C   UNL     1      40.009  48.022  45.598  1.00  0.00    +0.072 A 
ATOM     10  N   UNL     1      38.941  48.235  47.593  1.00  0.00    -0.171 NA
ATOM     11  N   UNL     1      38.046  48.374  46.570  1.00  0.00    -0.217 N 
ATOM     12  C   UNL     1      41.312  47.665  47.819  1.00  0.00    +0.069 C 
BRANCH  11  13
ATOM     13  C   UNL     1      36.648  48.422  46.870  1.00  0.00    +0.067 A 
ATOM     14  C   UNL     1      36.000  49.624  47.184  1.00  0.00    +0.028 A 
ATOM     15  C   UNL     1      35.896  47.241  46.805  1.00  0.00    +0.028 A 
ATOM     16  C   UNL     1      34.633  49.635  47.469  1.00  0.00    +0.002 A 
ATOM     17  C   UNL     1      34.532  47.257  47.095  1.00  0.00    +0.002 A 
ATOM     18  C   UNL     1      33.901  48.452  47.433  1.00  0.00    +0.000 A 
ENDBRANCH  11  13
ENDBRANCH   1   7
BRANCH   4  19
ATOM     19  C   UNL     1      37.338  49.676  40.115  1.00  0.00    +0.072 C 
ATOM     20  C   UNL     1      36.470  50.859  40.560  1.00  0.00    +0.100 C 
ATOM     21  C   UNL     1      38.486  50.381  39.380  1.00  0.00    +0.049 C 
ATOM     22  N   UNL     1      36.489  51.733  39.389  1.00  0.00    -0.304 NA
ATOM     23  C   UNL     1      37.846  51.651  38.808  1.00  0.00    +0.145 C 
ATOM     24  H   UNL     1      36.216  52.689  39.607  1.00  0.00    +0.123 HD
BRANCH  23  25
ATOM     25  C   UNL     1      37.790  51.601  37.261  1.00  0.00    +0.240 C 
ATOM     26  O   UNL     1      36.729  51.681  36.634  1.00  0.00    -0.273 OA
BRANCH  25  27
ATOM     27  N   UNL     1      38.996  51.404  36.595  1.00  0.00    -0.331 N 
ATOM     28  C   UNL     1      39.102  50.329  35.619  1.00  0.00    +0.131 C 
ATOM     29  C   UNL     1      40.049  52.392  36.489  1.00  0.00    +0.189 C 
ATOM     30  C   UNL     1      40.572  50.067  35.345  1.00  0.00    +0.093 C 
ATOM     31  S   UNL     1      41.336  51.706  35.420  1.00  0.00    -0.139 SA
ENDBRANCH  25  27
ENDBRANCH  23  25
ENDBRANCH   4  19
TORSDOF 5
ENDMDL
MODEL 6
REMARK VINA RESULT:    -6.724      6.065      9.340
REMARK INTER + INTRA:          -9.779
REMARK INTER:                  -8.793
REMARK INTRA:                  -0.985
REMARK UNBOUND:                -1.090
REMARK SMILES Cc1cc(N2CCN([C@H]3CN[C@H](C(=O)N4CCSC4)C3)CC2)n(-c2ccccc2)n1
REMARK SMILES IDX 5 1 6 2 7 3 8 4 21 5 22 6 4 7 2 8 3 9 30 10 23 11 1 12 24 13
REMARK SMILES IDX 25 14 29 15 26 16 28 17 27 18 9 19 10 20 20 21 11 22 12 23
REMARK SMILES IDX 13 25 14 26 15 27 16 28 19 29 17 30 18 31
REMARK H PARENT 11 24
ROOT
ATOM      1  N   UNL     1      39.030  49.129  45.792  1.00  0.00    -0.354 N 
ATOM      2  C   UNL     1      38.466  48.221  44.754  1.00  0.00    +0.133 C 
ATOM      3  C   UNL     1      37.303  48.868  43.967  1.00  0.00    +0.106 C 
ATOM      4  N   UNL     1      37.597  50.186  43.370  1.00  0.00    -0.296 NA
ATOM      5  C   UNL     1      38.604  50.939  44.142  1.00  0.00    +0.106 C 
ATOM      6  C   UNL     1      38.640  50.549  45.637  1.00  0.00    +0.133 C 
ENDROOT
BRANCH   1   7
ATOM      7  C   UNL     1      39.144  48.624  47.068  1.00  0.00    +0.132 A 
ATOM      8  C   UNL     1      39.881  47.880  49.030  1.00  0.00    +0.062 A 
ATOM      9  C   UNL     1      40.218  47.998  47.669  1.00  0.00    +0.072 A 
ATOM     10  N   UNL     1      38.656  48.348  49.282  1.00  0.00    -0.171 NA
ATOM     11  N   UNL     1      38.144  48.684  48.060  1.00  0.00    -0.217 N 
ATOM     12  C   UNL     1      40.718  47.335  50.132  1.00  0.00    +0.069 C 
BRANCH  11  13
ATOM     13  C   UNL     1      36.752  48.987  47.948  1.00  0.00    +0.067 A 
ATOM     14  C   UNL     1      35.840  48.082  47.389  1.00  0.00    +0.028 A 
ATOM     15  C   UNL     1      36.276  50.206  48.452  1.00  0.00    +0.028 A 
ATOM     16  C   UNL     1      34.485  48.409  47.298  1.00  0.00    +0.002 A 
ATOM     17  C   UNL     1      34.924  50.531  48.354  1.00  0.00    +0.002 A 
ATOM     18  C   UNL     1      34.028  49.635  47.772  1.00  0.00    +0.000 A 
ENDBRANCH  11  13
ENDBRANCH   1   7
BRANCH   4  19
ATOM     19  C   UNL     1      37.801  50.147  41.916  1.00  0.00    +0.072 C 
ATOM     20  C   UNL     1      39.154  50.651  41.402  1.00  0.00    +0.100 C 
ATOM     21  C   UNL     1      37.689  48.778  41.230  1.00  0.00    +0.049 C 
ATOM     22  N   UNL     1      39.130  50.264  39.993  1.00  0.00    -0.304 NA
ATOM     23  C   UNL     1      38.458  48.949  39.915  1.00  0.00    +0.145 C 
ATOM     24  H   UNL     1      40.057  50.252  39.572  1.00  0.00    +0.123 HD
BRANCH  23  25
ATOM     25  C   UNL     1      37.505  48.879  38.697  1.00  0.00    +0.240 C 
ATOM     26  O   UNL     1      36.456  48.228  38.714  1.00  0.00    -0.273 OA
BRANCH  25  27
ATOM     27  N   UNL     1      37.910  49.545  37.543  1.00  0.00    -0.331 N 
ATOM     28  C   UNL     1      38.893  48.919  36.670  1.00  0.00    +0.131 C 
ATOM     29  C   UNL     1      37.179  50.626  36.916  1.00  0.00    +0.189 C 
ATOM     30  C   UNL     1      39.455  49.978  35.738  1.00  0.00    +0.093 C 
ATOM     31  S   UNL     1      38.042  51.053  35.386  1.00  0.00    -0.139 SA
ENDBRANCH  25  27
ENDBRANCH  23  25
ENDBRANCH   4  19
TORSDOF 5
ENDMDL
