MODEL 1
REMARK VINA RESULT:    -7.547      0.000      0.000
REMARK INTER + INTRA:          -9.759
REMARK INTER:                  -8.871
REMARK INTRA:                  -0.888
REMARK UNBOUND:                -0.888
REMARK SMILES Cn1c(=O)c2c(nc(N3CCOCC3)n2Cc2ccccc2)n(C)c1=O
REMARK SMILES IDX 1 1 2 2 3 3 4 4 5 5 6 6 7 7 8 8 15 9 23 10 24 11 25 12 26 13
REMARK SMILES IDX 16 14 17 15 18 16 22 17 19 18 21 19 20 20 9 21 10 22 14 23
REMARK SMILES IDX 11 24 13 25 12 26
REMARK H PARENT
ROOT
ATOM      1  C   UNL     1      43.388  52.329  34.204  1.00  0.00    +0.159 C 
ATOM      2  N   UNL     1      42.691  52.214  35.470  1.00  0.00    -0.261 N 
ATOM      3  C   UNL     1      41.932  51.060  35.690  1.00  0.00    +0.282 C 
ATOM      4  O   UNL     1      41.790  50.167  34.859  1.00  0.00    -0.267 OA
ATOM      5  C   UNL     1      41.303  51.044  36.966  1.00  0.00    +0.154 A 
ATOM      6  C   UNL     1      41.370  52.091  37.834  1.00  0.00    +0.170 A 
ATOM      7  N   UNL     1      40.663  51.861  38.970  1.00  0.00    -0.194 NA
ATOM      8  C   UNL     1      40.145  50.661  38.810  1.00  0.00    +0.208 A 
ATOM      9  N   UNL     1      40.556  50.095  37.616  1.00  0.00    -0.300 N 
ATOM     10  N   UNL     1      42.071  53.237  37.542  1.00  0.00    -0.279 N 
ATOM     11  C   UNL     1      42.089  54.339  38.486  1.00  0.00    +0.157 C 
ATOM     12  C   UNL     1      42.746  53.333  36.325  1.00  0.00    +0.332 C 
ATOM     13  O   UNL     1      43.361  54.353  36.000  1.00  0.00    -0.247 OA
ENDROOT
BRANCH   9  14
ATOM     14  C   UNL     1      40.282  48.742  37.158  1.00  0.00    +0.161 C 
BRANCH  14  15
ATOM     15  C   UNL     1      38.839  48.567  36.749  1.00  0.00    -0.028 A 
ATOM     16  C   UNL     1      38.043  47.572  37.337  1.00  0.00    +0.005 A 
ATOM     17  C   UNL     1      38.267  49.397  35.773  1.00  0.00    +0.005 A 
ATOM     18  C   UNL     1      36.708  47.416  36.959  1.00  0.00    +0.000 A 
ATOM     19  C   UNL     1      36.933  49.239  35.397  1.00  0.00    +0.000 A 
ATOM     20  C   UNL     1      36.153  48.249  35.991  1.00  0.00    +0.000 A 
ENDBRANCH  14  15
ENDBRANCH   9  14
BRANCH   8  21
ATOM     21  N   UNL     1      39.323  50.003  39.676  1.00  0.00    -0.338 N 
ATOM     22  C   UNL     1      39.925  49.756  41.016  1.00  0.00    +0.148 C 
ATOM     23  C   UNL     1      37.966  50.608  39.777  1.00  0.00    +0.148 C 
ATOM     24  C   UNL     1      39.390  50.745  42.060  1.00  0.00    +0.181 C 
ATOM     25  C   UNL     1      37.274  50.190  41.082  1.00  0.00    +0.181 C 
ATOM     26  O   UNL     1      37.968  50.633  42.258  1.00  0.00    -0.378 OA
ENDBRANCH   8  21
TORSDOF 3
ENDMDL
MODEL 2
REMARK VINA RESULT:    -6.960     10.027     12.273
REMARK INTER + INTRA:          -9.068
REMARK INTER:                  -8.174
REMARK INTRA:                  -0.894
REMARK UNBOUND:                -0.888
REMARK SMILES Cn1c(=O)c2c(nc(N3CCOCC3)n2Cc2ccccc2)n(C)c1=O
REMARK SMILES IDX 1 1 2 2 3 3 4 4 5 5 6 6 7 7 8 8 15 9 23 10 24 11 25 12 26 13
REMARK SMILES IDX 16 14 17 15 18 16 22 17 19 18 21 19 20 20 9 21 10 22 14 23
REMARK SMILES IDX 11 24 13 25 12 26
REMARK H PARENT
ROOT
ATOM      1  C   UNL     1      37.151  54.229  51.908  1.00  0.00    +0.159 C 
ATOM      2  N   UNL     1      37.281  53.094  51.015  1.00  0.00    -0.261 N 
ATOM      3  C   UNL     1      36.147  52.703  50.295  1.00  0.00    +0.282 C 
ATOM      4  O   UNL     1      35.047  53.237  50.411  1.00  0.00    -0.267 OA
ATOM      5  C   UNL     1      36.388  51.591  49.442  1.00  0.00    +0.154 A 
ATOM      6  C   UNL     1      37.579  50.933  49.408  1.00  0.00    +0.170 A 
ATOM      7  N   UNL     1      37.560  49.884  48.545  1.00  0.00    -0.194 NA
ATOM      8  C   UNL     1      36.345  49.884  48.037  1.00  0.00    +0.208 A 
ATOM      9  N   UNL     1      35.604  50.950  48.517  1.00  0.00    -0.300 N 
ATOM     10  N   UNL     1      38.644  51.311  50.190  1.00  0.00    -0.279 N 
ATOM     11  C   UNL     1      39.885  50.559  50.142  1.00  0.00    +0.157 C 
ATOM     12  C   UNL     1      38.512  52.410  51.038  1.00  0.00    +0.332 C 
ATOM     13  O   UNL     1      39.426  52.769  51.786  1.00  0.00    -0.247 OA
ENDROOT
BRANCH   9  14
ATOM     14  C   UNL     1      34.268  51.337  48.093  1.00  0.00    +0.161 C 
BRANCH  14  15
ATOM     15  C   UNL     1      34.304  52.340  46.963  1.00  0.00    -0.028 A 
ATOM     16  C   UNL     1      33.958  53.681  47.184  1.00  0.00    +0.005 A 
ATOM     17  C   UNL     1      34.684  51.946  45.671  1.00  0.00    +0.005 A 
ATOM     18  C   UNL     1      33.997  54.606  46.139  1.00  0.00    +0.000 A 
ATOM     19  C   UNL     1      34.721  52.873  44.627  1.00  0.00    +0.000 A 
ATOM     20  C   UNL     1      34.379  54.202  44.862  1.00  0.00    +0.000 A 
ENDBRANCH  14  15
ENDBRANCH   9  14
BRANCH   8  21
ATOM     21  N   UNL     1      35.832  48.993  47.142  1.00  0.00    -0.338 N 
ATOM     22  C   UNL     1      36.680  48.791  45.934  1.00  0.00    +0.148 C 
ATOM     23  C   UNL     1      35.428  47.700  47.761  1.00  0.00    +0.148 C 
ATOM     24  C   UNL     1      37.468  47.477  46.017  1.00  0.00    +0.181 C 
ATOM     25  C   UNL     1      35.354  46.585  46.708  1.00  0.00    +0.181 C 
ATOM     26  O   UNL     1      36.616  46.318  46.079  1.00  0.00    -0.378 OA
ENDBRANCH   8  21
TORSDOF 3
ENDMDL
MODEL 3
REMARK VINA RESULT:    -6.839      7.242     11.540
REMARK INTER + INTRA:          -8.926
REMARK INTER:                  -7.984
REMARK INTRA:                  -0.942
REMARK UNBOUND:                -0.888
REMARK SMILES Cn1c(=O)c2c(nc(N3CCOCC3)n2Cc2ccccc2)n(C)c1=O
REMARK SMILES IDX 1 1 2 2 3 3 4 4 5 5 6 6 7 7 8 8 15 9 23 10 24 11 25 12 26 13
REMARK SMILES IDX 16 14 17 15 18 16 22 17 19 18 21 19 20 20 9 21 10 22 14 23
REMARK SMILES IDX 11 24 13 25 12 26
REMARK H PARENT
ROOT
ATOM      1  C   UNL     1      36.650  50.493  51.935  1.00  0.00    +0.159 C 
ATOM      2  N   UNL     1      37.049  50.206  50.571  1.00  0.00    -0.261 N 
ATOM      3  C   UNL     1      36.053  50.215  49.588  1.00  0.00    +0.282 C 
ATOM      4  O   UNL     1      34.864  50.407  49.824  1.00  0.00    -0.267 OA
ATOM      5  C   UNL     1      36.555  49.935  48.288  1.00  0.00    +0.154 A 
ATOM      6  C   UNL     1      37.856  49.606  48.054  1.00  0.00    +0.170 A 
ATOM      7  N   UNL     1      38.091  49.347  46.742  1.00  0.00    -0.194 NA
ATOM      8  C   UNL     1      36.926  49.510  46.149  1.00  0.00    +0.208 A 
ATOM      9  N   UNL     1      35.962  49.926  47.051  1.00  0.00    -0.300 N 
ATOM     10  N   UNL     1      38.784  49.540  49.066  1.00  0.00    -0.279 N 
ATOM     11  C   UNL     1      40.153  49.156  48.772  1.00  0.00    +0.157 C 
ATOM     12  C   UNL     1      38.392  49.828  50.373  1.00  0.00    +0.332 C 
ATOM     13  O   UNL     1      39.178  49.749  51.321  1.00  0.00    -0.247 OA
ENDROOT
BRANCH   9  14
ATOM     14  C   UNL     1      34.596  50.318  46.740  1.00  0.00    +0.161 C 
BRANCH  14  15
ATOM     15  C   UNL     1      34.493  51.788  46.409  1.00  0.00    -0.028 A 
ATOM     16  C   UNL     1      34.643  52.237  45.089  1.00  0.00    +0.005 A 
ATOM     17  C   UNL     1      34.245  52.731  47.418  1.00  0.00    +0.005 A 
ATOM     18  C   UNL     1      34.543  53.596  44.786  1.00  0.00    +0.000 A 
ATOM     19  C   UNL     1      34.146  54.090  47.112  1.00  0.00    +0.000 A 
ATOM     20  C   UNL     1      34.293  54.521  45.797  1.00  0.00    +0.000 A 
ENDBRANCH  14  15
ENDBRANCH   9  14
BRANCH   8  21
ATOM     21  N   UNL     1      36.648  49.327  44.828  1.00  0.00    -0.338 N 
ATOM     22  C   UNL     1      37.460  50.179  43.913  1.00  0.00    +0.148 C 
ATOM     23  C   UNL     1      36.661  47.896  44.414  1.00  0.00    +0.148 C 
ATOM     24  C   UNL     1      38.593  49.377  43.262  1.00  0.00    +0.181 C 
ATOM     25  C   UNL     1      36.859  47.765  42.897  1.00  0.00    +0.181 C 
ATOM     26  O   UNL     1      38.113  48.295  42.443  1.00  0.00    -0.378 OA
ENDBRANCH   8  21
TORSDOF 3
ENDMDL
MODEL 4
REMARK VINA RESULT:    -6.622      6.742     10.307
REMARK INTER + INTRA:          -8.671
REMARK INTER:                  -7.960
REMARK INTRA:                  -0.712
REMARK UNBOUND:                -0.888
REMARK SMILES Cn1c(=O)c2c(nc(N3CCOCC3)n2Cc2ccccc2)n(C)c1=O
REMARK SMILES IDX 1 1 2 2 3 3 4 4 5 5 6 6 7 7 8 8 15 9 23 10 24 11 25 12 26 13
REMARK SMILES IDX 16 14 17 15 18 16 22 17 19 18 21 19 20 20 9 21 10 22 14 23
REMARK SMILES IDX 11 24 13 25 12 26
REMARK H PARENT
ROOT
ATOM      1  C   UNL     1      39.068  49.273  42.449  1.00  0.00    +0.159 C 
ATOM      2  N   UNL     1      38.858  49.190  43.881  1.00  0.00    -0.261 N 
ATOM      3  C   UNL     1      37.596  49.539  44.372  1.00  0.00    +0.282 C 
ATOM      4  O   UNL     1      36.679  49.950  43.667  1.00  0.00    -0.267 OA
ATOM      5  C   UNL     1      37.495  49.410  45.785  1.00  0.00    +0.154 A 
ATOM      6  C   UNL     1      38.552  49.066  46.571  1.00  0.00    +0.170 A 
ATOM      7  N   UNL     1      38.224  49.042  47.889  1.00  0.00    -0.194 NA
ATOM      8  C   UNL     1      36.951  49.376  47.928  1.00  0.00    +0.208 A 
ATOM      9  N   UNL     1      36.443  49.558  46.653  1.00  0.00    -0.300 N 
ATOM     10  N   UNL     1      39.796  48.803  46.047  1.00  0.00    -0.279 N 
ATOM     11  C   UNL     1      40.900  48.470  46.928  1.00  0.00    +0.157 C 
ATOM     12  C   UNL     1      39.984  48.875  44.667  1.00  0.00    +0.332 C 
ATOM     13  O   UNL     1      41.088  48.682  44.150  1.00  0.00    -0.247 OA
ENDROOT
BRANCH   9  14
ATOM     14  C   UNL     1      35.056  49.817  46.301  1.00  0.00    +0.161 C 
BRANCH  14  15
ATOM     15  C   UNL     1      34.734  51.292  46.330  1.00  0.00    -0.028 A 
ATOM     16  C   UNL     1      34.434  51.936  47.540  1.00  0.00    +0.005 A 
ATOM     17  C   UNL     1      34.728  52.046  45.147  1.00  0.00    +0.005 A 
ATOM     18  C   UNL     1      34.140  53.301  47.564  1.00  0.00    +0.000 A 
ATOM     19  C   UNL     1      34.433  53.410  45.173  1.00  0.00    +0.000 A 
ATOM     20  C   UNL     1      34.141  54.037  46.382  1.00  0.00    +0.000 A 
ENDBRANCH  14  15
ENDBRANCH   9  14
BRANCH   8  21
ATOM     21  N   UNL     1      36.178  49.522  49.040  1.00  0.00    -0.338 N 
ATOM     22  C   UNL     1      35.790  48.235  49.683  1.00  0.00    +0.148 C 
ATOM     23  C   UNL     1      36.735  50.491  50.025  1.00  0.00    +0.148 C 
ATOM     24  C   UNL     1      36.638  47.956  50.931  1.00  0.00    +0.181 C 
ATOM     25  C   UNL     1      36.151  50.250  51.424  1.00  0.00    +0.181 C 
ATOM     26  O   UNL     1      36.470  48.955  51.955  1.00  0.00    -0.378 OA
ENDBRANCH   8  21
TORSDOF 3
ENDMDL
