MODEL 1
REMARK VINA RESULT:    -8.591      0.000      0.000
REMARK INTER + INTRA:         -11.867
REMARK INTER:                 -11.103
REMARK INTRA:                  -0.765
REMARK UNBOUND:                -0.765
REMARK SMILES Cc1cc(N2CCN([C@@H]3CN[C@H](C(=O)N4CCSC4)C3)CC2)n(-c2ccccc2)n1
REMARK SMILES IDX 5 1 6 2 7 3 8 4 21 5 22 6 4 7 2 8 3 9 30 10 23 11 1 12 24 13
REMARK SMILES IDX 25 14 29 15 26 16 28 17 27 18 9 19 10 20 20 21 11 22 12 23
REMARK SMILES IDX 13 25 14 26 15 27 16 28 19 29 17 30 18 31
REMARK H PARENT 11 24
ROOT
ATOM      1  N   UNL     1      41.846  32.696  14.561  1.00  0.00    -0.354 N 
ATOM      2  C   UNL     1      42.543  32.194  13.343  1.00  0.00    +0.133 C 
ATOM      3  C   UNL     1      42.155  30.729  13.044  1.00  0.00    +0.106 C 
ATOM      4  N   UNL     1      42.544  29.778  14.114  1.00  0.00    -0.296 NA
ATOM      5  C   UNL     1      42.503  30.438  15.440  1.00  0.00    +0.106 C 
ATOM      6  C   UNL     1      41.530  31.634  15.544  1.00  0.00    +0.133 C 
ENDROOT
BRANCH   1   7
ATOM      7  C   UNL     1      42.307  33.907  15.027  1.00  0.00    +0.132 A 
ATOM      8  C   UNL     1      43.537  35.600  15.776  1.00  0.00    +0.062 A 
ATOM      9  C   UNL     1      43.465  34.198  15.718  1.00  0.00    +0.072 A 
ATOM     10  N   UNL     1      42.492  36.177  15.185  1.00  0.00    -0.171 NA
ATOM     11  N   UNL     1      41.671  35.146  14.820  1.00  0.00    -0.217 N 
ATOM     12  C   UNL     1      44.611  36.435  16.367  1.00  0.00    +0.069 C 
BRANCH  11  13
ATOM     13  C   UNL     1      40.353  35.439  14.350  1.00  0.00    +0.067 A 
ATOM     14  C   UNL     1      40.122  36.375  13.334  1.00  0.00    +0.028 A 
ATOM     15  C   UNL     1      39.262  34.737  14.888  1.00  0.00    +0.028 A 
ATOM     16  C   UNL     1      38.820  36.626  12.887  1.00  0.00    +0.002 A 
ATOM     17  C   UNL     1      37.963  34.992  14.440  1.00  0.00    +0.002 A 
ATOM     18  C   UNL     1      37.743  35.939  13.443  1.00  0.00    +0.000 A 
ENDBRANCH  11  13
ENDBRANCH   1   7
BRANCH   4  19
ATOM     19  C   UNL     1      41.772  28.527  14.050  1.00  0.00    +0.072 C 
ATOM     20  C   UNL     1      42.547  27.234  14.351  1.00  0.00    +0.100 C 
ATOM     21  C   UNL     1      41.215  28.224  12.651  1.00  0.00    +0.049 C 
ATOM     22  N   UNL     1      41.666  26.173  13.841  1.00  0.00    -0.304 NA
ATOM     23  C   UNL     1      41.159  26.697  12.550  1.00  0.00    +0.145 C 
ATOM     24  H   UNL     1      40.880  26.067  14.484  1.00  0.00    +0.123 HD
BRANCH  23  25
ATOM     25  C   UNL     1      42.021  26.195  11.358  1.00  0.00    +0.240 C 
ATOM     26  O   UNL     1      43.046  25.528  11.512  1.00  0.00    -0.273 OA
BRANCH  25  27
ATOM     27  N   UNL     1      41.613  26.584  10.088  1.00  0.00    -0.331 N 
ATOM     28  C   UNL     1      42.335  27.643   9.401  1.00  0.00    +0.131 C 
ATOM     29  C   UNL     1      40.795  25.778   9.209  1.00  0.00    +0.189 C 
ATOM     30  C   UNL     1      41.454  28.167   8.283  1.00  0.00    +0.093 C 
ATOM     31  S   UNL     1      40.602  26.695   7.663  1.00  0.00    -0.139 SA
ENDBRANCH  25  27
ENDBRANCH  23  25
ENDBRANCH   4  19
TORSDOF 5
ENDMDL
MODEL 2
REMARK VINA RESULT:    -8.354      1.560      3.704
REMARK INTER + INTRA:         -11.561
REMARK INTER:                 -10.587
REMARK INTRA:                  -0.974
REMARK UNBOUND:                -0.765
REMARK SMILES Cc1cc(N2CCN([C@@H]3CN[C@H](C(=O)N4CCSC4)C3)CC2)n(-c2ccccc2)n1
REMARK SMILES IDX 5 1 6 2 7 3 8 4 21 5 22 6 4 7 2 8 3 9 30 10 23 11 1 12 24 13
REMARK SMILES IDX 25 14 29 15 26 16 28 17 27 18 9 19 10 20 20 21 11 22 12 23
REMARK SMILES IDX 13 25 14 26 15 27 16 28 19 29 17 30 18 31
REMARK H PARENT 11 24
ROOT
ATOM      1  N   UNL     1      41.930  33.096  14.662  1.00  0.00    -0.354 N 
ATOM      2  C   UNL     1      41.038  32.119  15.347  1.00  0.00    +0.133 C 
ATOM      3  C   UNL     1      41.621  30.690  15.278  1.00  0.00    +0.106 C 
ATOM      4  N   UNL     1      41.755  30.166  13.897  1.00  0.00    -0.296 NA
ATOM      5  C   UNL     1      42.030  31.267  12.945  1.00  0.00    +0.106 C 
ATOM      6  C   UNL     1      42.723  32.504  13.559  1.00  0.00    +0.133 C 
ENDROOT
BRANCH   1   7
ATOM      7  C   UNL     1      41.379  34.344  14.478  1.00  0.00    +0.132 A 
ATOM      8  C   UNL     1      40.050  36.066  14.019  1.00  0.00    +0.062 A 
ATOM      9  C   UNL     1      40.309  34.724  13.693  1.00  0.00    +0.072 A 
ATOM     10  N   UNL     1      40.902  36.530  14.932  1.00  0.00    -0.171 NA
ATOM     11  N   UNL     1      41.795  35.515  15.138  1.00  0.00    -0.217 N 
ATOM     12  C   UNL     1      38.971  36.939  13.498  1.00  0.00    +0.069 C 
BRANCH  11  13
ATOM     13  C   UNL     1      42.972  35.771  15.909  1.00  0.00    +0.067 A 
ATOM     14  C   UNL     1      43.002  35.587  17.297  1.00  0.00    +0.028 A 
ATOM     15  C   UNL     1      44.146  36.176  15.252  1.00  0.00    +0.028 A 
ATOM     16  C   UNL     1      44.176  35.832  18.017  1.00  0.00    +0.002 A 
ATOM     17  C   UNL     1      45.316  36.422  15.976  1.00  0.00    +0.002 A 
ATOM     18  C   UNL     1      45.328  36.254  17.358  1.00  0.00    +0.000 A 
ENDBRANCH  11  13
ENDBRANCH   1   7
BRANCH   4  19
ATOM     19  C   UNL     1      42.719  29.057  13.816  1.00  0.00    +0.072 C 
ATOM     20  C   UNL     1      44.181  29.445  13.548  1.00  0.00    +0.100 C 
ATOM     21  C   UNL     1      42.445  28.095  12.650  1.00  0.00    +0.049 C 
ATOM     22  N   UNL     1      44.808  28.180  13.136  1.00  0.00    -0.304 NA
ATOM     23  C   UNL     1      43.814  27.547  12.237  1.00  0.00    +0.145 C 
ATOM     24  H   UNL     1      44.926  27.593  13.962  1.00  0.00    +0.123 HD
BRANCH  23  25
ATOM     25  C   UNL     1      44.108  27.876  10.747  1.00  0.00    +0.240 C 
ATOM     26  O   UNL     1      45.218  28.239  10.351  1.00  0.00    -0.273 OA
BRANCH  25  27
ATOM     27  N   UNL     1      43.034  27.799   9.869  1.00  0.00    -0.331 N 
ATOM     28  C   UNL     1      42.693  28.957   9.058  1.00  0.00    +0.131 C 
ATOM     29  C   UNL     1      42.464  26.563   9.381  1.00  0.00    +0.189 C 
ATOM     30  C   UNL     1      41.275  28.776   8.549  1.00  0.00    +0.093 C 
ATOM     31  S   UNL     1      41.145  27.000   8.224  1.00  0.00    -0.139 SA
ENDBRANCH  25  27
ENDBRANCH  23  25
ENDBRANCH   4  19
TORSDOF 5
ENDMDL
MODEL 3
REMARK VINA RESULT:    -7.956      2.739      4.437
REMARK INTER + INTRA:         -11.046
REMARK INTER:                 -10.008
REMARK INTRA:                  -1.038
REMARK UNBOUND:                -0.765
REMARK SMILES Cc1cc(N2CCN([C@@H]3CN[C@H](C(=O)N4CCSC4)C3)CC2)n(-c2ccccc2)n1
REMARK SMILES IDX 5 1 6 2 7 3 8 4 21 5 22 6 4 7 2 8 3 9 30 10 23 11 1 12 24 13
REMARK SMILES IDX 25 14 29 15 26 16 28 17 27 18 9 19 10 20 20 21 11 22 12 23
REMARK SMILES IDX 13 25 14 26 15 27 16 28 19 29 17 30 18 31
REMARK H PARENT 11 24
ROOT
ATOM      1  N   UNL     1      42.081  33.102  14.313  1.00  0.00    -0.354 N 
ATOM      2  C   UNL     1      41.277  32.098  15.065  1.00  0.00    +0.133 C 
ATOM      3  C   UNL     1      41.864  30.679  14.899  1.00  0.00    +0.106 C 
ATOM      4  N   UNL     1      41.857  30.189  13.499  1.00  0.00    -0.296 NA
ATOM      5  C   UNL     1      42.017  31.316  12.550  1.00  0.00    +0.106 C 
ATOM      6  C   UNL     1      42.759  32.546  13.118  1.00  0.00    +0.133 C 
ENDROOT
BRANCH   1   7
ATOM      7  C   UNL     1      41.500  34.347  14.219  1.00  0.00    +0.132 A 
ATOM      8  C   UNL     1      40.136  36.068  13.869  1.00  0.00    +0.062 A 
ATOM      9  C   UNL     1      40.441  34.765  13.439  1.00  0.00    +0.072 A 
ATOM     10  N   UNL     1      40.950  36.474  14.842  1.00  0.00    -0.171 NA
ATOM     11  N   UNL     1      41.866  35.468  14.987  1.00  0.00    -0.217 N 
ATOM     12  C   UNL     1      39.047  36.954  13.392  1.00  0.00    +0.069 C 
BRANCH  11  13
ATOM     13  C   UNL     1      43.015  35.688  15.810  1.00  0.00    +0.067 A 
ATOM     14  C   UNL     1      44.234  36.123  15.278  1.00  0.00    +0.028 A 
ATOM     15  C   UNL     1      42.906  35.506  17.199  1.00  0.00    +0.028 A 
ATOM     16  C   UNL     1      45.333  36.342  16.115  1.00  0.00    +0.002 A 
ATOM     17  C   UNL     1      44.007  35.724  18.032  1.00  0.00    +0.002 A 
ATOM     18  C   UNL     1      45.220  36.138  17.489  1.00  0.00    +0.000 A 
ENDBRANCH  11  13
ENDBRANCH   1   7
BRANCH   4  19
ATOM     19  C   UNL     1      42.818  29.095  13.289  1.00  0.00    +0.072 C 
ATOM     20  C   UNL     1      44.303  29.491  13.261  1.00  0.00    +0.100 C 
ATOM     21  C   UNL     1      42.666  28.402  11.927  1.00  0.00    +0.049 C 
ATOM     22  N   UNL     1      44.964  28.321  12.662  1.00  0.00    -0.304 NA
ATOM     23  C   UNL     1      44.068  27.914  11.552  1.00  0.00    +0.145 C 
ATOM     24  H   UNL     1      44.990  27.573  13.355  1.00  0.00    +0.123 HD
BRANCH  23  25
ATOM     25  C   UNL     1      44.522  28.536  10.202  1.00  0.00    +0.240 C 
ATOM     26  O   UNL     1      43.758  29.169   9.470  1.00  0.00    -0.273 OA
BRANCH  25  27
ATOM     27  N   UNL     1      45.835  28.296   9.817  1.00  0.00    -0.331 N 
ATOM     28  C   UNL     1      46.155  27.073   9.098  1.00  0.00    +0.131 C 
ATOM     29  C   UNL     1      46.853  29.317   9.701  1.00  0.00    +0.189 C 
ATOM     30  C   UNL     1      47.652  26.846   9.194  1.00  0.00    +0.093 C 
ATOM     31  S   UNL     1      48.358  28.511   9.108  1.00  0.00    -0.139 SA
ENDBRANCH  25  27
ENDBRANCH  23  25
ENDBRANCH   4  19
TORSDOF 5
ENDMDL
MODEL 4
REMARK VINA RESULT:    -7.693      4.337      9.464
REMARK INTER + INTRA:         -10.707
REMARK INTER:                  -9.576
REMARK INTRA:                  -1.131
REMARK UNBOUND:                -0.765
REMARK SMILES Cc1cc(N2CCN([C@@H]3CN[C@H](C(=O)N4CCSC4)C3)CC2)n(-c2ccccc2)n1
REMARK SMILES IDX 5 1 6 2 7 3 8 4 21 5 22 6 4 7 2 8 3 9 30 10 23 11 1 12 24 13
REMARK SMILES IDX 25 14 29 15 26 16 28 17 27 18 9 19 10 20 20 21 11 22 12 23
REMARK SMILES IDX 13 25 14 26 15 27 16 28 19 29 17 30 18 31
REMARK H PARENT 11 24
ROOT
ATOM      1  N   UNL     1      43.030  30.068  11.861  1.00  0.00    -0.354 N 
ATOM      2  C   UNL     1      42.406  31.408  11.666  1.00  0.00    +0.133 C 
ATOM      3  C   UNL     1      42.447  32.236  12.969  1.00  0.00    +0.106 C 
ATOM      4  N   UNL     1      41.683  31.629  14.087  1.00  0.00    -0.296 NA
ATOM      5  C   UNL     1      41.703  30.150  13.991  1.00  0.00    +0.106 C 
ATOM      6  C   UNL     1      42.924  29.561  13.249  1.00  0.00    +0.133 C 
ENDROOT
BRANCH   1   7
ATOM      7  C   UNL     1      42.831  29.187  10.822  1.00  0.00    +0.132 A 
ATOM      8  C   UNL     1      42.025  28.024   9.106  1.00  0.00    +0.062 A 
ATOM      9  C   UNL     1      41.652  28.770  10.238  1.00  0.00    +0.072 A 
ATOM     10  N   UNL     1      43.349  27.945   8.977  1.00  0.00    -0.171 NA
ATOM     11  N   UNL     1      43.856  28.559  10.089  1.00  0.00    -0.217 N 
ATOM     12  C   UNL     1      41.141  27.391   8.099  1.00  0.00    +0.069 C 
BRANCH  11  13
ATOM     13  C   UNL     1      45.255  28.455  10.363  1.00  0.00    +0.067 A 
ATOM     14  C   UNL     1      46.216  29.064   9.547  1.00  0.00    +0.028 A 
ATOM     15  C   UNL     1      45.679  27.761  11.509  1.00  0.00    +0.028 A 
ATOM     16  C   UNL     1      47.576  28.955   9.854  1.00  0.00    +0.002 A 
ATOM     17  C   UNL     1      47.039  27.652  11.811  1.00  0.00    +0.002 A 
ATOM     18  C   UNL     1      47.986  28.246  10.981  1.00  0.00    +0.000 A 
ENDBRANCH  11  13
ENDBRANCH   1   7
BRANCH   4  19
ATOM     19  C   UNL     1      42.112  32.144  15.396  1.00  0.00    +0.072 C 
ATOM     20  C   UNL     1      41.588  33.536  15.784  1.00  0.00    +0.100 C 
ATOM     21  C   UNL     1      43.630  32.356  15.500  1.00  0.00    +0.049 C 
ATOM     22  N   UNL     1      42.460  33.939  16.897  1.00  0.00    -0.304 NA
ATOM     23  C   UNL     1      43.819  33.520  16.477  1.00  0.00    +0.145 C 
ATOM     24  H   UNL     1      42.194  33.408  17.726  1.00  0.00    +0.123 HD
BRANCH  23  25
ATOM     25  C   UNL     1      44.585  34.688  15.796  1.00  0.00    +0.240 C 
ATOM     26  O   UNL     1      44.661  34.811  14.571  1.00  0.00    -0.273 OA
BRANCH  25  27
ATOM     27  N   UNL     1      45.245  35.574  16.639  1.00  0.00    -0.331 N 
ATOM     28  C   UNL     1      46.466  35.150  17.305  1.00  0.00    +0.131 C 
ATOM     29  C   UNL     1      45.069  37.009  16.615  1.00  0.00    +0.189 C 
ATOM     30  C   UNL     1      46.724  36.093  18.465  1.00  0.00    +0.093 C 
ATOM     31  S   UNL     1      46.191  37.709  17.848  1.00  0.00    -0.139 SA
ENDBRANCH  25  27
ENDBRANCH  23  25
ENDBRANCH   4  19
TORSDOF 5
ENDMDL
MODEL 5
REMARK VINA RESULT:    -7.463      4.608      9.468
REMARK INTER + INTRA:         -10.409
REMARK INTER:                  -9.675
REMARK INTRA:                  -0.735
REMARK UNBOUND:                -0.765
REMARK SMILES Cc1cc(N2CCN([C@@H]3CN[C@H](C(=O)N4CCSC4)C3)CC2)n(-c2ccccc2)n1
REMARK SMILES IDX 5 1 6 2 7 3 8 4 21 5 22 6 4 7 2 8 3 9 30 10 23 11 1 12 24 13
REMARK SMILES IDX 25 14 29 15 26 16 28 17 27 18 9 19 10 20 20 21 11 22 12 23
REMARK SMILES IDX 13 25 14 26 15 27 16 28 19 29 17 30 18 31
REMARK H PARENT 11 24
ROOT
ATOM      1  N   UNL     1      42.799  32.211  12.727  1.00  0.00    -0.354 N 
ATOM      2  C   UNL     1      41.855  33.326  12.434  1.00  0.00    +0.133 C 
ATOM      3  C   UNL     1      41.778  34.315  13.617  1.00  0.00    +0.106 C 
ATOM      4  N   UNL     1      41.263  33.710  14.870  1.00  0.00    -0.296 NA
ATOM      5  C   UNL     1      41.638  32.279  14.951  1.00  0.00    +0.106 C 
ATOM      6  C   UNL     1      42.914  31.893  14.169  1.00  0.00    +0.133 C 
ENDROOT
BRANCH   1   7
ATOM      7  C   UNL     1      42.754  31.170  11.826  1.00  0.00    +0.132 A 
ATOM      8  C   UNL     1      42.350  29.835  10.094  1.00  0.00    +0.062 A 
ATOM      9  C   UNL     1      41.820  30.897  10.847  1.00  0.00    +0.072 A 
ATOM     10  N   UNL     1      43.532  29.434  10.563  1.00  0.00    -0.171 NA
ATOM     11  N   UNL     1      43.737  30.171  11.696  1.00  0.00    -0.217 N 
ATOM     12  C   UNL     1      41.769  29.189   8.894  1.00  0.00    +0.069 C 
BRANCH  11  13
ATOM     13  C   UNL     1      44.824  29.829  12.560  1.00  0.00    +0.067 A 
ATOM     14  C   UNL     1      44.739  28.768  13.471  1.00  0.00    +0.028 A 
ATOM     15  C   UNL     1      46.028  30.547  12.463  1.00  0.00    +0.028 A 
ATOM     16  C   UNL     1      45.828  28.452  14.289  1.00  0.00    +0.002 A 
ATOM     17  C   UNL     1      47.112  30.229  13.285  1.00  0.00    +0.002 A 
ATOM     18  C   UNL     1      47.010  29.184  14.200  1.00  0.00    +0.000 A 
ENDBRANCH  11  13
ENDBRANCH   1   7
BRANCH   4  19
ATOM     19  C   UNL     1      41.639  34.490  16.058  1.00  0.00    +0.072 C 
ATOM     20  C   UNL     1      41.575  36.019  15.916  1.00  0.00    +0.100 C 
ATOM     21  C   UNL     1      43.101  34.289  16.483  1.00  0.00    +0.049 C 
ATOM     22  N   UNL     1      42.352  36.509  17.065  1.00  0.00    -0.304 NA
ATOM     23  C   UNL     1      43.530  35.610  17.129  1.00  0.00    +0.145 C 
ATOM     24  H   UNL     1      41.796  36.383  17.910  1.00  0.00    +0.123 HD
BRANCH  23  25
ATOM     25  C   UNL     1      44.747  36.217  16.378  1.00  0.00    +0.240 C 
ATOM     26  O   UNL     1      44.812  36.272  15.148  1.00  0.00    -0.273 OA
BRANCH  25  27
ATOM     27  N   UNL     1      45.808  36.653  17.163  1.00  0.00    -0.331 N 
ATOM     28  C   UNL     1      47.150  36.166  16.882  1.00  0.00    +0.131 C 
ATOM     29  C   UNL     1      45.786  37.847  17.978  1.00  0.00    +0.189 C 
ATOM     30  C   UNL     1      48.010  36.420  18.105  1.00  0.00    +0.093 C 
ATOM     31  S   UNL     1      47.416  38.006  18.743  1.00  0.00    -0.139 SA
ENDBRANCH  25  27
ENDBRANCH  23  25
ENDBRANCH   4  19
TORSDOF 5
ENDMDL
MODEL 6
REMARK VINA RESULT:    -7.158      4.603      9.295
REMARK INTER + INTRA:         -10.016
REMARK INTER:                  -9.257
REMARK INTRA:                  -0.758
REMARK UNBOUND:                -0.765
REMARK SMILES Cc1cc(N2CCN([C@@H]3CN[C@H](C(=O)N4CCSC4)C3)CC2)n(-c2ccccc2)n1
REMARK SMILES IDX 5 1 6 2 7 3 8 4 21 5 22 6 4 7 2 8 3 9 30 10 23 11 1 12 24 13
REMARK SMILES IDX 25 14 29 15 26 16 28 17 27 18 9 19 10 20 20 21 11 22 12 23
REMARK SMILES IDX 13 25 14 26 15 27 16 28 19 29 17 30 18 31
REMARK H PARENT 11 24
ROOT
ATOM      1  N   UNL     1      42.535  31.285  14.066  1.00  0.00    -0.354 N 
ATOM      2  C   UNL     1      41.675  32.458  14.390  1.00  0.00    +0.133 C 
ATOM      3  C   UNL     1      42.513  33.751  14.494  1.00  0.00    +0.106 C 
ATOM      4  N   UNL     1      43.526  33.720  15.578  1.00  0.00    -0.296 NA
ATOM      5  C   UNL     1      44.020  32.340  15.793  1.00  0.00    +0.106 C 
ATOM      6  C   UNL     1      43.925  31.414  14.560  1.00  0.00    +0.133 C 
ENDROOT
BRANCH   1   7
ATOM      7  C   UNL     1      41.906  30.065  14.180  1.00  0.00    +0.132 A 
ATOM      8  C   UNL     1      40.650  28.338  14.798  1.00  0.00    +0.062 A 
ATOM      9  C   UNL     1      41.289  29.496  15.275  1.00  0.00    +0.072 A 
ATOM     10  N   UNL     1      40.855  28.158  13.494  1.00  0.00    -0.171 NA
ATOM     11  N   UNL     1      41.721  29.151  13.126  1.00  0.00    -0.217 N 
ATOM     12  C   UNL     1      39.803  27.386  15.556  1.00  0.00    +0.069 C 
BRANCH  11  13
ATOM     13  C   UNL     1      42.312  29.110  11.825  1.00  0.00    +0.067 A 
ATOM     14  C   UNL     1      43.484  28.388  11.568  1.00  0.00    +0.028 A 
ATOM     15  C   UNL     1      41.676  29.776  10.763  1.00  0.00    +0.028 A 
ATOM     16  C   UNL     1      44.026  28.358  10.278  1.00  0.00    +0.002 A 
ATOM     17  C   UNL     1      42.224  29.745   9.478  1.00  0.00    +0.002 A 
ATOM     18  C   UNL     1      43.400  29.039   9.237  1.00  0.00    +0.000 A 
ENDBRANCH  11  13
ENDBRANCH   1   7
BRANCH   4  19
ATOM     19  C   UNL     1      44.596  34.707  15.365  1.00  0.00    +0.072 C 
ATOM     20  C   UNL     1      46.027  34.233  15.664  1.00  0.00    +0.100 C 
ATOM     21  C   UNL     1      44.488  35.933  16.284  1.00  0.00    +0.049 C 
ATOM     22  N   UNL     1      46.798  35.483  15.748  1.00  0.00    -0.304 NA
ATOM     23  C   UNL     1      45.926  36.409  16.510  1.00  0.00    +0.145 C 
ATOM     24  H   UNL     1      46.922  35.851  14.804  1.00  0.00    +0.123 HD
BRANCH  23  25
ATOM     25  C   UNL     1      46.275  36.397  18.024  1.00  0.00    +0.240 C 
ATOM     26  O   UNL     1      46.175  37.396  18.739  1.00  0.00    -0.273 OA
BRANCH  25  27
ATOM     27  N   UNL     1      46.768  35.204  18.539  1.00  0.00    -0.331 N 
ATOM     28  C   UNL     1      48.206  35.023  18.664  1.00  0.00    +0.131 C 
ATOM     29  C   UNL     1      45.998  34.277  19.338  1.00  0.00    +0.189 C 
ATOM     30  C   UNL     1      48.484  33.539  18.813  1.00  0.00    +0.093 C 
ATOM     31  S   UNL     1      47.104  32.929  19.814  1.00  0.00    -0.139 SA
ENDBRANCH  25  27
ENDBRANCH  23  25
ENDBRANCH   4  19
TORSDOF 5
ENDMDL
MODEL 7
REMARK VINA RESULT:    -7.023      5.092      6.054
REMARK INTER + INTRA:          -9.841
REMARK INTER:                  -8.721
REMARK INTRA:                  -1.120
REMARK UNBOUND:                -0.765
REMARK SMILES Cc1cc(N2CCN([C@@H]3CN[C@H](C(=O)N4CCSC4)C3)CC2)n(-c2ccccc2)n1
REMARK SMILES IDX 5 1 6 2 7 3 8 4 21 5 22 6 4 7 2 8 3 9 30 10 23 11 1 12 24 13
REMARK SMILES IDX 25 14 29 15 26 16 28 17 27 18 9 19 10 20 20 21 11 22 12 23
REMARK SMILES IDX 13 25 14 26 15 27 16 28 19 29 17 30 18 31
REMARK H PARENT 11 24
ROOT
ATOM      1  N   UNL     1      46.440  33.173  14.267  1.00  0.00    -0.354 N 
ATOM      2  C   UNL     1      47.425  34.247  13.952  1.00  0.00    +0.133 C 
ATOM      3  C   UNL     1      48.294  33.865  12.734  1.00  0.00    +0.106 C 
ATOM      4  N   UNL     1      49.121  32.651  12.947  1.00  0.00    -0.296 NA
ATOM      5  C   UNL     1      48.437  31.707  13.861  1.00  0.00    +0.106 C 
ATOM      6  C   UNL     1      46.896  31.818  13.881  1.00  0.00    +0.133 C 
ENDROOT
BRANCH   1   7
ATOM      7  C   UNL     1      45.786  33.330  15.469  1.00  0.00    +0.132 A 
ATOM      8  C   UNL     1      45.246  33.594  17.609  1.00  0.00    +0.062 A 
ATOM      9  C   UNL     1      46.238  33.089  16.750  1.00  0.00    +0.072 A 
ATOM     10  N   UNL     1      44.217  34.106  16.934  1.00  0.00    -0.171 NA
ATOM     11  N   UNL     1      44.485  33.846  15.618  1.00  0.00    -0.217 N 
ATOM     12  C   UNL     1      45.256  33.634  19.091  1.00  0.00    +0.069 C 
BRANCH  11  13
ATOM     13  C   UNL     1      43.467  34.078  14.642  1.00  0.00    +0.067 A 
ATOM     14  C   UNL     1      42.935  33.041  13.867  1.00  0.00    +0.028 A 
ATOM     15  C   UNL     1      42.951  35.376  14.486  1.00  0.00    +0.028 A 
ATOM     16  C   UNL     1      41.928  33.302  12.932  1.00  0.00    +0.002 A 
ATOM     17  C   UNL     1      41.948  35.633  13.549  1.00  0.00    +0.002 A 
ATOM     18  C   UNL     1      41.439  34.597  12.770  1.00  0.00    +0.000 A 
ENDBRANCH  11  13
ENDBRANCH   1   7
BRANCH   4  19
ATOM     19  C   UNL     1      49.549  32.043  11.678  1.00  0.00    +0.072 C 
ATOM     20  C   UNL     1      48.774  32.472  10.422  1.00  0.00    +0.100 C 
ATOM     21  C   UNL     1      49.363  30.519  11.639  1.00  0.00    +0.049 C 
ATOM     22  N   UNL     1      49.134  31.453   9.425  1.00  0.00    -0.304 NA
ATOM     23  C   UNL     1      49.098  30.172  10.171  1.00  0.00    +0.145 C 
ATOM     24  H   UNL     1      50.091  31.626   9.115  1.00  0.00    +0.123 HD
BRANCH  23  25
ATOM     25  C   UNL     1      47.723  29.465  10.015  1.00  0.00    +0.240 C 
ATOM     26  O   UNL     1      46.721  29.811  10.643  1.00  0.00    -0.273 OA
BRANCH  25  27
ATOM     27  N   UNL     1      47.681  28.368   9.163  1.00  0.00    -0.331 N 
ATOM     28  C   UNL     1      48.812  28.102   8.287  1.00  0.00    +0.131 C 
ATOM     29  C   UNL     1      46.806  27.230   9.338  1.00  0.00    +0.189 C 
ATOM     30  C   UNL     1      48.347  27.164   7.189  1.00  0.00    +0.093 C 
ATOM     31  S   UNL     1      47.181  26.055   8.017  1.00  0.00    -0.139 SA
ENDBRANCH  25  27
ENDBRANCH  23  25
ENDBRANCH   4  19
TORSDOF 5
ENDMDL
