MODEL 1
REMARK VINA RESULT:    -5.814      0.000      0.000
REMARK INTER + INTRA:          -8.428
REMARK INTER:                  -7.343
REMARK INTRA:                  -1.085
REMARK UNBOUND:                -1.085
REMARK SMILES N[C@H]1CCCN([P@@](N)(=O)NS(=O)(=O)O)C1=O
REMARK SMILES IDX 7 1 9 2 6 3 2 4 3 5 15 6 4 7 16 8 5 9 1 10 8 13 10 16 11 18
REMARK SMILES IDX 12 19 13 20 14 21
REMARK H PARENT 1 11 1 12 8 14 8 15 10 17 14 22
ROOT
ATOM      1  P   UNL     1      43.729  35.130  16.175  1.00  0.00    +0.320 P 
ATOM      2  O   UNL     1      44.288  36.521  16.109  1.00  0.00    -0.263 OA
ENDROOT
BRANCH   1   3
ATOM      3  N   UNL     1      42.139  35.055  15.569  1.00  0.00    -0.267 N 
ATOM      4  C   UNL     1      39.999  33.801  15.248  1.00  0.00    +0.141 C 
ATOM      5  C   UNL     1      39.645  34.826  14.172  1.00  0.00    +0.030 C 
ATOM      6  C   UNL     1      41.478  33.848  15.661  1.00  0.00    +0.246 C 
ATOM      7  C   UNL     1      40.152  36.204  14.547  1.00  0.00    +0.024 C 
ATOM      8  O   UNL     1      41.997  32.856  16.185  1.00  0.00    -0.273 OA
ATOM      9  C   UNL     1      41.661  36.158  14.742  1.00  0.00    +0.129 C 
BRANCH   4  10
ATOM     10  N   UNL     1      39.183  33.983  16.463  1.00  0.00    -0.320 NA
ATOM     11  H   UNL     1      38.523  34.746  16.271  1.00  0.00    +0.119 HD
ATOM     12  H   UNL     1      39.771  34.333  17.221  1.00  0.00    +0.119 HD
ENDBRANCH   4  10
ENDBRANCH   1   3
BRANCH   1  13
ATOM     13  N   UNL     1      44.551  34.001  15.340  1.00  0.00    -0.251 NA
ATOM     14  H   UNL     1      45.457  33.820  15.765  1.00  0.00    +0.129 HD
ATOM     15  H   UNL     1      44.064  33.108  15.313  1.00  0.00    +0.129 HD
ENDBRANCH   1  13
BRANCH   1  16
ATOM     16  N   UNL     1      43.520  34.631  17.755  1.00  0.00    -0.109 NA
ATOM     17  H   UNL     1      42.649  34.157  17.988  1.00  0.00    +0.154 HD
BRANCH  16  18
ATOM     18  S   UNL     1      44.832  33.868  18.357  1.00  0.00    +0.341 S 
ATOM     19  O   UNL     1      46.018  34.628  18.028  1.00  0.00    -0.181 OA
ATOM     20  O   UNL     1      44.701  32.491  17.946  1.00  0.00    -0.181 OA
BRANCH  18  21
ATOM     21  O   UNL     1      44.616  33.967  19.945  1.00  0.00    -0.273 OA
ATOM     22  H   UNL     1      44.589  33.052  20.349  1.00  0.00    +0.235 HD
ENDBRANCH  18  21
ENDBRANCH  16  18
ENDBRANCH   1  16
TORSDOF 6
ENDMDL
MODEL 2
REMARK VINA RESULT:    -5.800      1.684      2.126
REMARK INTER + INTRA:          -8.411
REMARK INTER:                  -7.104
REMARK INTRA:                  -1.307
REMARK UNBOUND:                -1.085
REMARK SMILES N[C@H]1CCCN([P@@](N)(=O)NS(=O)(=O)O)C1=O
REMARK SMILES IDX 7 1 9 2 6 3 2 4 3 5 15 6 4 7 16 8 5 9 1 10 8 13 10 16 11 18
REMARK SMILES IDX 12 19 13 20 14 21
REMARK H PARENT 1 11 1 12 8 14 8 15 10 17 14 22
ROOT
ATOM      1  P   UNL     1      44.957  35.121  17.770  1.00  0.00    +0.320 P 
ATOM      2  O   UNL     1      45.488  36.480  18.118  1.00  0.00    -0.263 OA
ENDROOT
BRANCH   1   3
ATOM      3  N   UNL     1      43.458  35.212  16.965  1.00  0.00    -0.267 N 
ATOM      4  C   UNL     1      41.445  34.084  16.002  1.00  0.00    +0.141 C 
ATOM      5  C   UNL     1      41.166  35.385  15.250  1.00  0.00    +0.030 C 
ATOM      6  C   UNL     1      42.858  34.025  16.600  1.00  0.00    +0.246 C 
ATOM      7  C   UNL     1      41.549  36.589  16.088  1.00  0.00    +0.024 C 
ATOM      8  O   UNL     1      43.364  32.927  16.862  1.00  0.00    -0.273 OA
ATOM      9  C   UNL     1      43.023  36.508  16.457  1.00  0.00    +0.129 C 
BRANCH   4  10
ATOM     10  N   UNL     1      40.479  33.871  17.096  1.00  0.00    -0.320 NA
ATOM     11  H   UNL     1      40.570  34.667  17.739  1.00  0.00    +0.119 HD
ATOM     12  H   UNL     1      40.761  33.058  17.647  1.00  0.00    +0.119 HD
ENDBRANCH   4  10
ENDBRANCH   1   3
BRANCH   1  13
ATOM     13  N   UNL     1      45.903  34.224  16.795  1.00  0.00    -0.251 NA
ATOM     14  H   UNL     1      46.063  34.694  15.908  1.00  0.00    +0.129 HD
ATOM     15  H   UNL     1      46.822  34.052  17.198  1.00  0.00    +0.129 HD
ENDBRANCH   1  13
BRANCH   1  16
ATOM     16  N   UNL     1      44.563  34.250  19.139  1.00  0.00    -0.109 NA
ATOM     17  H   UNL     1      43.757  33.628  19.086  1.00  0.00    +0.154 HD
BRANCH  16  18
ATOM     18  S   UNL     1      45.859  33.542  19.835  1.00  0.00    +0.341 S 
ATOM     19  O   UNL     1      46.195  32.340  19.104  1.00  0.00    -0.181 OA
ATOM     20  O   UNL     1      45.560  33.489  21.245  1.00  0.00    -0.181 OA
BRANCH  18  21
ATOM     21  O   UNL     1      47.035  34.607  19.585  1.00  0.00    -0.273 OA
ATOM     22  H   UNL     1      46.649  35.509  19.385  1.00  0.00    +0.235 HD
ENDBRANCH  18  21
ENDBRANCH  16  18
ENDBRANCH   1  16
TORSDOF 6
ENDMDL
MODEL 3
REMARK VINA RESULT:    -5.782      3.832      5.410
REMARK INTER + INTRA:          -8.388
REMARK INTER:                  -7.871
REMARK INTRA:                  -0.517
REMARK UNBOUND:                -1.085
REMARK SMILES N[C@H]1CCCN([P@@](N)(=O)NS(=O)(=O)O)C1=O
REMARK SMILES IDX 7 1 9 2 6 3 2 4 3 5 15 6 4 7 16 8 5 9 1 10 8 13 10 16 11 18
REMARK SMILES IDX 12 19 13 20 14 21
REMARK H PARENT 1 11 1 12 8 14 8 15 10 17 14 22
ROOT
ATOM      1  P   UNL     1      42.867  35.472  16.106  1.00  0.00    +0.320 P 
ATOM      2  O   UNL     1      43.228  35.805  14.689  1.00  0.00    -0.263 OA
ENDROOT
BRANCH   1   3
ATOM      3  N   UNL     1      44.239  35.414  17.114  1.00  0.00    -0.267 N 
ATOM      4  C   UNL     1      46.280  36.506  18.060  1.00  0.00    +0.141 C 
ATOM      5  C   UNL     1      46.739  35.113  18.487  1.00  0.00    +0.030 C 
ATOM      6  C   UNL     1      45.117  36.477  17.058  1.00  0.00    +0.246 C 
ATOM      7  C   UNL     1      45.561  34.260  18.912  1.00  0.00    +0.024 C 
ATOM      8  O   UNL     1      44.916  37.454  16.328  1.00  0.00    -0.273 OA
ATOM      9  C   UNL     1      44.567  34.150  17.765  1.00  0.00    +0.129 C 
BRANCH   4  10
ATOM     10  N   UNL     1      45.863  37.320  19.218  1.00  0.00    -0.320 NA
ATOM     11  H   UNL     1      46.628  37.975  19.417  1.00  0.00    +0.119 HD
ATOM     12  H   UNL     1      45.805  36.728  20.049  1.00  0.00    +0.119 HD
ENDBRANCH   4  10
ENDBRANCH   1   3
BRANCH   1  13
ATOM     13  N   UNL     1      41.851  36.511  16.838  1.00  0.00    -0.251 NA
ATOM     14  H   UNL     1      42.054  36.581  17.831  1.00  0.00    +0.129 HD
ATOM     15  H   UNL     1      41.925  37.455  16.463  1.00  0.00    +0.129 HD
ENDBRANCH   1  13
BRANCH   1  16
ATOM     16  N   UNL     1      42.278  33.914  16.235  1.00  0.00    -0.109 NA
ATOM     17  H   UNL     1      42.627  33.340  17.001  1.00  0.00    +0.154 HD
BRANCH  16  18
ATOM     18  S   UNL     1      40.654  33.836  16.080  1.00  0.00    +0.341 S 
ATOM     19  O   UNL     1      40.266  32.467  15.823  1.00  0.00    -0.181 OA
ATOM     20  O   UNL     1      40.303  34.889  15.158  1.00  0.00    -0.181 OA
BRANCH  18  21
ATOM     21  O   UNL     1      40.128  34.223  17.547  1.00  0.00    -0.273 OA
ATOM     22  H   UNL     1      39.988  33.397  18.094  1.00  0.00    +0.235 HD
ENDBRANCH  18  21
ENDBRANCH  16  18
ENDBRANCH   1  16
TORSDOF 6
ENDMDL
MODEL 4
REMARK VINA RESULT:    -5.778      3.557      5.310
REMARK INTER + INTRA:          -8.383
REMARK INTER:                  -7.342
REMARK INTRA:                  -1.041
REMARK UNBOUND:                -1.085
REMARK SMILES N[C@H]1CCCN([P@@](N)(=O)NS(=O)(=O)O)C1=O
REMARK SMILES IDX 7 1 9 2 6 3 2 4 3 5 15 6 4 7 16 8 5 9 1 10 8 13 10 16 11 18
REMARK SMILES IDX 12 19 13 20 14 21
REMARK H PARENT 1 11 1 12 8 14 8 15 10 17 14 22
ROOT
ATOM      1  P   UNL     1      43.760  33.713  16.175  1.00  0.00    +0.320 P 
ATOM      2  O   UNL     1      43.992  32.258  16.453  1.00  0.00    -0.263 OA
ENDROOT
BRANCH   1   3
ATOM      3  N   UNL     1      45.022  34.685  16.779  1.00  0.00    -0.267 N 
ATOM      4  C   UNL     1      45.943  36.943  17.334  1.00  0.00    +0.141 C 
ATOM      5  C   UNL     1      47.320  36.284  17.404  1.00  0.00    +0.030 C 
ATOM      6  C   UNL     1      44.882  36.053  16.670  1.00  0.00    +0.246 C 
ATOM      7  C   UNL     1      47.222  34.883  17.976  1.00  0.00    +0.024 C 
ATOM      8  O   UNL     1      43.872  36.571  16.178  1.00  0.00    -0.273 OA
ATOM      9  C   UNL     1      46.288  34.044  17.116  1.00  0.00    +0.129 C 
BRANCH   4  10
ATOM     10  N   UNL     1      45.450  37.316  18.673  1.00  0.00    -0.320 NA
ATOM     11  H   UNL     1      45.997  36.779  19.356  1.00  0.00    +0.119 HD
ATOM     12  H   UNL     1      44.491  36.983  18.789  1.00  0.00    +0.119 HD
ENDBRANCH   4  10
ENDBRANCH   1   3
BRANCH   1  13
ATOM     13  N   UNL     1      43.632  34.120  14.605  1.00  0.00    -0.251 NA
ATOM     14  H   UNL     1      44.503  34.511  14.257  1.00  0.00    +0.129 HD
ATOM     15  H   UNL     1      43.420  33.319  14.013  1.00  0.00    +0.129 HD
ENDBRANCH   1  13
BRANCH   1  16
ATOM     16  N   UNL     1      42.442  34.293  17.023  1.00  0.00    -0.109 NA
ATOM     17  H   UNL     1      42.546  35.186  17.503  1.00  0.00    +0.154 HD
BRANCH  16  18
ATOM     18  S   UNL     1      41.050  34.192  16.175  1.00  0.00    +0.341 S 
ATOM     19  O   UNL     1      41.077  33.001  15.355  1.00  0.00    -0.181 OA
ATOM     20  O   UNL     1      40.864  35.494  15.581  1.00  0.00    -0.181 OA
BRANCH  18  21
ATOM     21  O   UNL     1      39.943  33.971  17.317  1.00  0.00    -0.273 OA
ATOM     22  H   UNL     1      39.052  34.303  17.005  1.00  0.00    +0.235 HD
ENDBRANCH  18  21
ENDBRANCH  16  18
ENDBRANCH   1  16
TORSDOF 6
ENDMDL
MODEL 5
REMARK VINA RESULT:    -5.768      4.076      5.096
REMARK INTER + INTRA:          -8.370
REMARK INTER:                  -7.128
REMARK INTRA:                  -1.243
REMARK UNBOUND:                -1.085
REMARK SMILES N[C@H]1CCCN([P@@](N)(=O)NS(=O)(=O)O)C1=O
REMARK SMILES IDX 7 1 9 2 6 3 2 4 3 5 15 6 4 7 16 8 5 9 1 10 8 13 10 16 11 18
REMARK SMILES IDX 12 19 13 20 14 21
REMARK H PARENT 1 11 1 12 8 14 8 15 10 17 14 22
ROOT
ATOM      1  P   UNL     1      42.046  33.254  14.576  1.00  0.00    +0.320 P 
ATOM      2  O   UNL     1      42.573  34.337  13.682  1.00  0.00    -0.263 OA
ENDROOT
BRANCH   1   3
ATOM      3  N   UNL     1      42.319  31.704  13.925  1.00  0.00    -0.267 N 
ATOM      4  C   UNL     1      41.985  29.227  14.013  1.00  0.00    +0.141 C 
ATOM      5  C   UNL     1      43.153  29.108  13.036  1.00  0.00    +0.030 C 
ATOM      6  C   UNL     1      41.873  30.619  14.651  1.00  0.00    +0.246 C 
ATOM      7  C   UNL     1      43.154  30.257  12.048  1.00  0.00    +0.024 C 
ATOM      8  O   UNL     1      41.272  30.752  15.724  1.00  0.00    -0.273 OA
ATOM      9  C   UNL     1      43.239  31.578  12.800  1.00  0.00    +0.129 C 
BRANCH   4  10
ATOM     10  N   UNL     1      40.697  28.921  13.361  1.00  0.00    -0.320 NA
ATOM     11  H   UNL     1      40.842  28.082  12.787  1.00  0.00    +0.119 HD
ATOM     12  H   UNL     1      40.469  29.658  12.691  1.00  0.00    +0.119 HD
ENDBRANCH   4  10
ENDBRANCH   1   3
BRANCH   1  13
ATOM     13  N   UNL     1      42.689  33.200  16.071  1.00  0.00    -0.251 NA
ATOM     14  H   UNL     1      42.111  32.644  16.696  1.00  0.00    +0.129 HD
ATOM     15  H   UNL     1      43.614  32.775  16.080  1.00  0.00    +0.129 HD
ENDBRANCH   1  13
BRANCH   1  16
ATOM     16  N   UNL     1      40.380  33.300  14.674  1.00  0.00    -0.109 NA
ATOM     17  H   UNL     1      39.875  32.428  14.519  1.00  0.00    +0.154 HD
BRANCH  16  18
ATOM     18  S   UNL     1      39.844  34.112  15.986  1.00  0.00    +0.341 S 
ATOM     19  O   UNL     1      38.413  34.291  15.883  1.00  0.00    -0.181 OA
ATOM     20  O   UNL     1      40.723  35.248  16.121  1.00  0.00    -0.181 OA
BRANCH  18  21
ATOM     21  O   UNL     1      40.120  33.086  17.189  1.00  0.00    -0.273 OA
ATOM     22  H   UNL     1      39.411  32.380  17.212  1.00  0.00    +0.235 HD
ENDBRANCH  18  21
ENDBRANCH  16  18
ENDBRANCH   1  16
TORSDOF 6
ENDMDL
MODEL 6
REMARK VINA RESULT:    -5.693      2.514      3.645
REMARK INTER + INTRA:          -8.276
REMARK INTER:                  -7.360
REMARK INTRA:                  -0.916
REMARK UNBOUND:                -1.085
REMARK SMILES N[C@H]1CCCN([P@@](N)(=O)NS(=O)(=O)O)C1=O
REMARK SMILES IDX 7 1 9 2 6 3 2 4 3 5 15 6 4 7 16 8 5 9 1 10 8 13 10 16 11 18
REMARK SMILES IDX 12 19 13 20 14 21
REMARK H PARENT 1 11 1 12 8 14 8 15 10 17 14 22
ROOT
ATOM      1  P   UNL     1      44.537  35.602  17.382  1.00  0.00    +0.320 P 
ATOM      2  O   UNL     1      45.719  34.781  17.802  1.00  0.00    -0.263 OA
ENDROOT
BRANCH   1   3
ATOM      3  N   UNL     1      43.741  34.928  16.035  1.00  0.00    -0.267 N 
ATOM      4  C   UNL     1      41.960  35.052  14.284  1.00  0.00    +0.141 C 
ATOM      5  C   UNL     1      42.183  33.559  14.054  1.00  0.00    +0.030 C 
ATOM      6  C   UNL     1      42.606  35.566  15.579  1.00  0.00    +0.246 C 
ATOM      7  C   UNL     1      43.646  33.197  14.216  1.00  0.00    +0.024 C 
ATOM      8  O   UNL     1      42.184  36.605  16.102  1.00  0.00    -0.273 OA
ATOM      9  C   UNL     1      44.117  33.584  15.610  1.00  0.00    +0.129 C 
BRANCH   4  10
ATOM     10  N   UNL     1      42.481  35.859  13.165  1.00  0.00    -0.320 NA
ATOM     11  H   UNL     1      43.413  36.191  13.441  1.00  0.00    +0.119 HD
ATOM     12  H   UNL     1      41.922  36.709  13.066  1.00  0.00    +0.119 HD
ENDBRANCH   4  10
ENDBRANCH   1   3
BRANCH   1  13
ATOM     13  N   UNL     1      43.374  35.791  18.506  1.00  0.00    -0.251 NA
ATOM     14  H   UNL     1      42.576  36.291  18.124  1.00  0.00    +0.129 HD
ATOM     15  H   UNL     1      43.019  34.901  18.848  1.00  0.00    +0.129 HD
ENDBRANCH   1  13
BRANCH   1  16
ATOM     16  N   UNL     1      45.007  37.094  16.795  1.00  0.00    -0.109 NA
ATOM     17  H   UNL     1      44.276  37.720  16.460  1.00  0.00    +0.154 HD
BRANCH  16  18
ATOM     18  S   UNL     1      46.085  37.845  17.764  1.00  0.00    +0.341 S 
ATOM     19  O   UNL     1      45.851  39.272  17.719  1.00  0.00    -0.181 OA
ATOM     20  O   UNL     1      47.371  37.296  17.410  1.00  0.00    -0.181 OA
BRANCH  18  21
ATOM     21  O   UNL     1      45.677  37.332  19.230  1.00  0.00    -0.273 OA
ATOM     22  H   UNL     1      44.849  37.798  19.542  1.00  0.00    +0.235 HD
ENDBRANCH  18  21
ENDBRANCH  16  18
ENDBRANCH   1  16
TORSDOF 6
ENDMDL
MODEL 7
REMARK VINA RESULT:    -5.668      1.974      2.545
REMARK INTER + INTRA:          -8.244
REMARK INTER:                  -7.670
REMARK INTRA:                  -0.574
REMARK UNBOUND:                -1.085
REMARK SMILES N[C@H]1CCCN([P@@](N)(=O)NS(=O)(=O)O)C1=O
REMARK SMILES IDX 7 1 9 2 6 3 2 4 3 5 15 6 4 7 16 8 5 9 1 10 8 13 10 16 11 18
REMARK SMILES IDX 12 19 13 20 14 21
REMARK H PARENT 1 11 1 12 8 14 8 15 10 17 14 22
ROOT
ATOM      1  P   UNL     1      44.931  34.606  17.699  1.00  0.00    +0.320 P 
ATOM      2  O   UNL     1      45.970  34.170  16.709  1.00  0.00    -0.263 OA
ENDROOT
BRANCH   1   3
ATOM      3  N   UNL     1      43.441  34.948  16.948  1.00  0.00    -0.267 N 
ATOM      4  C   UNL     1      41.302  34.162  15.918  1.00  0.00    +0.141 C 
ATOM      5  C   UNL     1      41.160  35.560  15.320  1.00  0.00    +0.030 C 
ATOM      6  C   UNL     1      42.707  33.882  16.470  1.00  0.00    +0.246 C 
ATOM      7  C   UNL     1      41.686  36.615  16.274  1.00  0.00    +0.024 C 
ATOM      8  O   UNL     1      43.091  32.713  16.599  1.00  0.00    -0.273 OA
ATOM      9  C   UNL     1      43.146  36.333  16.594  1.00  0.00    +0.129 C 
BRANCH   4  10
ATOM     10  N   UNL     1      40.332  33.935  17.007  1.00  0.00    -0.320 NA
ATOM     11  H   UNL     1      40.086  34.857  17.388  1.00  0.00    +0.119 HD
ATOM     12  H   UNL     1      40.793  33.450  17.780  1.00  0.00    +0.119 HD
ENDBRANCH   4  10
ENDBRANCH   1   3
BRANCH   1  13
ATOM     13  N   UNL     1      44.575  33.528  18.866  1.00  0.00    -0.251 NA
ATOM     14  H   UNL     1      44.156  33.987  19.671  1.00  0.00    +0.129 HD
ATOM     15  H   UNL     1      43.905  32.827  18.555  1.00  0.00    +0.129 HD
ENDBRANCH   1  13
BRANCH   1  16
ATOM     16  N   UNL     1      45.319  36.079  18.384  1.00  0.00    -0.109 NA
ATOM     17  H   UNL     1      44.658  36.478  19.049  1.00  0.00    +0.154 HD
BRANCH  16  18
ATOM     18  S   UNL     1      46.863  36.144  18.913  1.00  0.00    +0.341 S 
ATOM     19  O   UNL     1      47.707  36.657  17.857  1.00  0.00    -0.181 OA
ATOM     20  O   UNL     1      47.123  34.854  19.505  1.00  0.00    -0.181 OA
BRANCH  18  21
ATOM     21  O   UNL     1      46.805  37.254  20.072  1.00  0.00    -0.273 OA
ATOM     22  H   UNL     1      46.100  37.019  20.742  1.00  0.00    +0.235 HD
ENDBRANCH  18  21
ENDBRANCH  16  18
ENDBRANCH   1  16
TORSDOF 6
ENDMDL
MODEL 8
REMARK VINA RESULT:    -5.615      3.442      5.124
REMARK INTER + INTRA:          -8.177
REMARK INTER:                  -7.361
REMARK INTRA:                  -0.817
REMARK UNBOUND:                -1.085
REMARK SMILES N[C@H]1CCCN([P@@](N)(=O)NS(=O)(=O)O)C1=O
REMARK SMILES IDX 7 1 9 2 6 3 2 4 3 5 15 6 4 7 16 8 5 9 1 10 8 13 10 16 11 18
REMARK SMILES IDX 12 19 13 20 14 21
REMARK H PARENT 1 11 1 12 8 14 8 15 10 17 14 22
ROOT
ATOM      1  P   UNL     1      42.342  34.405  13.904  1.00  0.00    +0.320 P 
ATOM      2  O   UNL     1      42.799  33.148  13.225  1.00  0.00    -0.263 OA
ENDROOT
BRANCH   1   3
ATOM      3  N   UNL     1      43.270  34.750  15.291  1.00  0.00    -0.267 N 
ATOM      4  C   UNL     1      44.129  34.085  17.544  1.00  0.00    +0.141 C 
ATOM      5  C   UNL     1      44.489  35.554  17.760  1.00  0.00    +0.030 C 
ATOM      6  C   UNL     1      43.194  33.863  16.346  1.00  0.00    +0.246 C 
ATOM      7  C   UNL     1      44.956  36.194  16.467  1.00  0.00    +0.024 C 
ATOM      8  O   UNL     1      42.504  32.838  16.291  1.00  0.00    -0.273 OA
ATOM      9  C   UNL     1      43.864  36.076  15.414  1.00  0.00    +0.129 C 
BRANCH   4  10
ATOM     10  N   UNL     1      45.331  33.254  17.342  1.00  0.00    -0.320 NA
ATOM     11  H   UNL     1      46.106  33.722  17.826  1.00  0.00    +0.119 HD
ATOM     12  H   UNL     1      45.595  33.268  16.355  1.00  0.00    +0.119 HD
ENDBRANCH   4  10
ENDBRANCH   1   3
BRANCH   1  13
ATOM     13  N   UNL     1      42.415  35.759  13.004  1.00  0.00    -0.251 NA
ATOM     14  H   UNL     1      41.566  36.309  13.105  1.00  0.00    +0.129 HD
ATOM     15  H   UNL     1      43.185  36.366  13.277  1.00  0.00    +0.129 HD
ENDBRANCH   1  13
BRANCH   1  16
ATOM     16  N   UNL     1      40.811  34.230  14.547  1.00  0.00    -0.109 NA
ATOM     17  H   UNL     1      40.739  33.930  15.519  1.00  0.00    +0.154 HD
BRANCH  16  18
ATOM     18  S   UNL     1      39.832  35.490  14.203  1.00  0.00    +0.341 S 
ATOM     19  O   UNL     1      39.618  35.550  12.774  1.00  0.00    -0.181 OA
ATOM     20  O   UNL     1      40.387  36.616  14.914  1.00  0.00    -0.181 OA
BRANCH  18  21
ATOM     21  O   UNL     1      38.440  35.069  14.886  1.00  0.00    -0.273 OA
ATOM     22  H   UNL     1      38.601  34.710  15.806  1.00  0.00    +0.235 HD
ENDBRANCH  18  21
ENDBRANCH  16  18
ENDBRANCH   1  16
TORSDOF 6
ENDMDL
MODEL 9
REMARK VINA RESULT:    -5.613      3.586      5.301
REMARK INTER + INTRA:          -8.175
REMARK INTER:                  -7.037
REMARK INTRA:                  -1.138
REMARK UNBOUND:                -1.085
REMARK SMILES N[C@H]1CCCN([P@@](N)(=O)NS(=O)(=O)O)C1=O
REMARK SMILES IDX 7 1 9 2 6 3 2 4 3 5 15 6 4 7 16 8 5 9 1 10 8 13 10 16 11 18
REMARK SMILES IDX 12 19 13 20 14 21
REMARK H PARENT 1 11 1 12 8 14 8 15 10 17 14 22
ROOT
ATOM      1  P   UNL     1      42.608  34.514  14.232  1.00  0.00    +0.320 P 
ATOM      2  O   UNL     1      42.919  33.247  13.492  1.00  0.00    -0.263 OA
ENDROOT
BRANCH   1   3
ATOM      3  N   UNL     1      43.764  34.844  15.439  1.00  0.00    -0.267 N 
ATOM      4  C   UNL     1      44.492  36.154  17.442  1.00  0.00    +0.141 C 
ATOM      5  C   UNL     1      45.905  35.639  17.174  1.00  0.00    +0.030 C 
ATOM      6  C   UNL     1      43.535  35.928  16.262  1.00  0.00    +0.246 C 
ATOM      7  C   UNL     1      45.874  34.217  16.650  1.00  0.00    +0.024 C 
ATOM      8  O   UNL     1      42.521  36.627  16.157  1.00  0.00    -0.273 OA
ATOM      9  C   UNL     1      45.051  34.161  15.371  1.00  0.00    +0.129 C 
BRANCH   4  10
ATOM     10  N   UNL     1      43.899  35.522  18.636  1.00  0.00    -0.320 NA
ATOM     11  H   UNL     1      42.893  35.725  18.616  1.00  0.00    +0.119 HD
ATOM     12  H   UNL     1      44.243  35.990  19.476  1.00  0.00    +0.119 HD
ENDBRANCH   4  10
ENDBRANCH   1   3
BRANCH   1  13
ATOM     13  N   UNL     1      42.552  35.865  13.325  1.00  0.00    -0.251 NA
ATOM     14  H   UNL     1      42.645  35.644  12.337  1.00  0.00    +0.129 HD
ATOM     15  H   UNL     1      41.670  36.363  13.426  1.00  0.00    +0.129 HD
ENDBRANCH   1  13
BRANCH   1  16
ATOM     16  N   UNL     1      41.205  34.370  15.126  1.00  0.00    -0.109 NA
ATOM     17  H   UNL     1      41.259  34.574  16.124  1.00  0.00    +0.154 HD
BRANCH  16  18
ATOM     18  S   UNL     1      39.921  35.078  14.408  1.00  0.00    +0.341 S 
ATOM     19  O   UNL     1      38.716  34.713  15.121  1.00  0.00    -0.181 OA
ATOM     20  O   UNL     1      40.060  34.793  13.001  1.00  0.00    -0.181 OA
BRANCH  18  21
ATOM     21  O   UNL     1      40.178  36.643  14.658  1.00  0.00    -0.273 OA
ATOM     22  H   UNL     1      40.771  37.015  13.943  1.00  0.00    +0.235 HD
ENDBRANCH  18  21
ENDBRANCH  16  18
ENDBRANCH   1  16
TORSDOF 6
ENDMDL
