MODEL 1
REMARK VINA RESULT:    -8.357      0.000      0.000
REMARK INTER + INTRA:         -10.892
REMARK INTER:                 -10.066
REMARK INTRA:                  -0.826
REMARK UNBOUND:                -0.826
REMARK SMILES N#Cc1ccccc1Cn1c(N2CCC[C@@H](N)C2)nc2ccccc2c1=O
REMARK SMILES IDX 10 1 11 2 19 3 20 4 21 5 22 6 23 7 24 8 25 9 26 10 27 11
REMARK SMILES IDX 9 12 8 13 1 14 2 15 3 16 4 17 5 18 7 19 6 20 12 21 13 22
REMARK SMILES IDX 18 23 14 24 16 25 15 26 17 27
REMARK H PARENT 17 28 17 29
ROOT
ATOM      1  N   UNL     1      39.960  51.013  36.366  1.00  0.00    -0.274 N 
ATOM      2  C   UNL     1      40.455  50.237  37.407  1.00  0.00    +0.209 C 
ATOM      3  N   UNL     1      39.859  49.153  37.815  1.00  0.00    -0.214 NA
ATOM      4  C   UNL     1      38.669  48.753  37.196  1.00  0.00    +0.080 A 
ATOM      5  C   UNL     1      38.039  47.587  37.638  1.00  0.00    +0.029 A 
ATOM      6  C   UNL     1      36.851  47.150  37.044  1.00  0.00    +0.002 A 
ATOM      7  C   UNL     1      36.281  47.880  36.001  1.00  0.00    +0.001 A 
ATOM      8  C   UNL     1      36.901  49.046  35.553  1.00  0.00    +0.016 A 
ATOM      9  C   UNL     1      38.090  49.473  36.156  1.00  0.00    +0.066 A 
ATOM     10  C   UNL     1      38.780  50.689  35.701  1.00  0.00    +0.263 C 
ATOM     11  O   UNL     1      38.308  51.335  34.768  1.00  0.00    -0.268 OA
ENDROOT
BRANCH   1  12
ATOM     12  C   UNL     1      40.693  52.185  35.891  1.00  0.00    +0.166 C 
BRANCH  12  13
ATOM     13  C   UNL     1      41.941  51.877  35.066  1.00  0.00    -0.010 A 
ATOM     14  N   UNL     1      43.159  54.675  36.866  1.00  0.00    -0.192 NA
ATOM     15  C   UNL     1      43.124  53.809  36.095  1.00  0.00    +0.099 C 
ATOM     16  C   UNL     1      43.083  52.707  35.175  1.00  0.00    +0.057 A 
ATOM     17  C   UNL     1      44.220  52.456  34.390  1.00  0.00    +0.020 A 
ATOM     18  C   UNL     1      44.238  51.388  33.494  1.00  0.00    +0.001 A 
ATOM     19  C   UNL     1      41.983  50.812  34.148  1.00  0.00    +0.007 A 
ATOM     20  C   UNL     1      43.121  50.566  33.377  1.00  0.00    +0.000 A 
ENDBRANCH  12  13
ENDBRANCH   1  12
BRANCH   2  21
ATOM     21  N   UNL     1      41.627  50.634  38.029  1.00  0.00    -0.341 N 
ATOM     22  C   UNL     1      41.529  51.860  38.853  1.00  0.00    +0.120 C 
ATOM     23  C   UNL     1      42.480  49.563  38.601  1.00  0.00    +0.138 C 
ATOM     24  C   UNL     1      42.764  52.049  39.723  1.00  0.00    +0.023 C 
ATOM     25  C   UNL     1      42.448  49.544  40.148  1.00  0.00    +0.070 C 
ATOM     26  C   UNL     1      42.946  50.889  40.705  1.00  0.00    +0.022 C 
BRANCH  25  27
ATOM     27  N   UNL     1      41.103  49.256  40.677  1.00  0.00    -0.326 NA
ATOM     28  H   UNL     1      40.950  49.850  41.508  1.00  0.00    +0.119 HD
ATOM     29  H   UNL     1      40.404  49.604  40.019  1.00  0.00    +0.119 HD
ENDBRANCH  25  27
ENDBRANCH   2  21
TORSDOF 4
ENDMDL
MODEL 2
REMARK VINA RESULT:    -8.277      3.303      5.291
REMARK INTER + INTRA:         -10.796
REMARK INTER:                  -9.692
REMARK INTRA:                  -1.105
REMARK UNBOUND:                -0.826
REMARK SMILES N#Cc1ccccc1Cn1c(N2CCC[C@@H](N)C2)nc2ccccc2c1=O
REMARK SMILES IDX 10 1 11 2 19 3 20 4 21 5 22 6 23 7 24 8 25 9 26 10 27 11
REMARK SMILES IDX 9 12 8 13 1 14 2 15 3 16 4 17 5 18 7 19 6 20 12 21 13 22
REMARK SMILES IDX 18 23 14 24 16 25 15 26 17 27
REMARK H PARENT 17 28 17 29
ROOT
ATOM      1  N   UNL     1      39.255  50.674  40.145  1.00  0.00    -0.274 N 
ATOM      2  C   UNL     1      38.319  49.996  39.373  1.00  0.00    +0.209 C 
ATOM      3  N   UNL     1      37.510  49.109  39.876  1.00  0.00    -0.214 NA
ATOM      4  C   UNL     1      37.585  48.812  41.241  1.00  0.00    +0.080 A 
ATOM      5  C   UNL     1      36.709  47.861  41.772  1.00  0.00    +0.029 A 
ATOM      6  C   UNL     1      36.749  47.537  43.132  1.00  0.00    +0.002 A 
ATOM      7  C   UNL     1      37.668  48.163  43.974  1.00  0.00    +0.001 A 
ATOM      8  C   UNL     1      38.547  49.112  43.454  1.00  0.00    +0.016 A 
ATOM      9  C   UNL     1      38.498  49.428  42.090  1.00  0.00    +0.066 A 
ATOM     10  C   UNL     1      39.398  50.434  41.509  1.00  0.00    +0.263 C 
ATOM     11  O   UNL     1      40.201  51.014  42.237  1.00  0.00    -0.268 OA
ENDROOT
BRANCH   1  12
ATOM     12  C   UNL     1      40.099  51.713  39.558  1.00  0.00    +0.166 C 
BRANCH  12  13
ATOM     13  C   UNL     1      41.391  51.212  38.916  1.00  0.00    -0.010 A 
ATOM     14  N   UNL     1      40.712  53.914  36.727  1.00  0.00    -0.192 NA
ATOM     15  C   UNL     1      41.229  52.972  37.165  1.00  0.00    +0.099 C 
ATOM     16  C   UNL     1      41.884  51.831  37.743  1.00  0.00    +0.057 A 
ATOM     17  C   UNL     1      43.048  51.351  37.122  1.00  0.00    +0.020 A 
ATOM     18  C   UNL     1      43.731  50.258  37.652  1.00  0.00    +0.001 A 
ATOM     19  C   UNL     1      42.094  50.105  39.425  1.00  0.00    +0.007 A 
ATOM     20  C   UNL     1      43.256  49.639  38.804  1.00  0.00    +0.000 A 
ENDBRANCH  12  13
ENDBRANCH   1  12
BRANCH   2  21
ATOM     21  N   UNL     1      38.248  50.281  38.019  1.00  0.00    -0.341 N 
ATOM     22  C   UNL     1      39.038  49.392  37.138  1.00  0.00    +0.120 C 
ATOM     23  C   UNL     1      36.920  50.671  37.484  1.00  0.00    +0.138 C 
ATOM     24  C   UNL     1      38.670  49.586  35.673  1.00  0.00    +0.023 C 
ATOM     25  C   UNL     1      36.286  49.565  36.608  1.00  0.00    +0.070 C 
ATOM     26  C   UNL     1      37.200  49.247  35.412  1.00  0.00    +0.022 C 
BRANCH  25  27
ATOM     27  N   UNL     1      36.020  48.331  37.369  1.00  0.00    -0.326 NA
ATOM     28  H   UNL     1      36.850  48.124  37.948  1.00  0.00    +0.119 HD
ATOM     29  H   UNL     1      35.298  48.517  38.067  1.00  0.00    +0.119 HD
ENDBRANCH  25  27
ENDBRANCH   2  21
TORSDOF 4
ENDMDL
MODEL 3
REMARK VINA RESULT:    -8.044      5.518      8.379
REMARK INTER + INTRA:         -10.516
REMARK INTER:                  -9.423
REMARK INTRA:                  -1.093
REMARK UNBOUND:                -0.826
REMARK SMILES N#Cc1ccccc1Cn1c(N2CCC[C@@H](N)C2)nc2ccccc2c1=O
REMARK SMILES IDX 10 1 11 2 19 3 20 4 21 5 22 6 23 7 24 8 25 9 26 10 27 11
REMARK SMILES IDX 9 12 8 13 1 14 2 15 3 16 4 17 5 18 7 19 6 20 12 21 13 22
REMARK SMILES IDX 18 23 14 24 16 25 15 26 17 27
REMARK H PARENT 17 28 17 29
ROOT
ATOM      1  N   UNL     1      36.782  49.555  41.610  1.00  0.00    -0.274 N 
ATOM      2  C   UNL     1      37.069  50.895  41.378  1.00  0.00    +0.209 C 
ATOM      3  N   UNL     1      37.371  51.349  40.196  1.00  0.00    -0.214 NA
ATOM      4  C   UNL     1      37.421  50.463  39.115  1.00  0.00    +0.080 A 
ATOM      5  C   UNL     1      37.742  50.961  37.849  1.00  0.00    +0.029 A 
ATOM      6  C   UNL     1      37.800  50.109  36.742  1.00  0.00    +0.002 A 
ATOM      7  C   UNL     1      37.538  48.747  36.892  1.00  0.00    +0.001 A 
ATOM      8  C   UNL     1      37.218  48.239  38.151  1.00  0.00    +0.016 A 
ATOM      9  C   UNL     1      37.164  49.103  39.252  1.00  0.00    +0.066 A 
ATOM     10  C   UNL     1      36.816  48.606  40.592  1.00  0.00    +0.263 C 
ATOM     11  O   UNL     1      36.559  47.414  40.743  1.00  0.00    -0.268 OA
ENDROOT
BRANCH   1  12
ATOM     12  C   UNL     1      36.380  49.094  42.938  1.00  0.00    +0.166 C 
BRANCH  12  13
ATOM     13  C   UNL     1      37.519  48.583  43.818  1.00  0.00    -0.010 A 
ATOM     14  N   UNL     1      34.822  46.924  45.408  1.00  0.00    -0.192 NA
ATOM     15  C   UNL     1      35.901  47.302  45.207  1.00  0.00    +0.099 C 
ATOM     16  C   UNL     1      37.238  47.743  44.922  1.00  0.00    +0.057 A 
ATOM     17  C   UNL     1      38.273  47.303  45.761  1.00  0.00    +0.020 A 
ATOM     18  C   UNL     1      39.591  47.687  45.518  1.00  0.00    +0.001 A 
ATOM     19  C   UNL     1      38.856  48.964  43.600  1.00  0.00    +0.007 A 
ATOM     20  C   UNL     1      39.881  48.514  44.437  1.00  0.00    +0.000 A 
ENDBRANCH  12  13
ENDBRANCH   1  12
BRANCH   2  21
ATOM     21  N   UNL     1      37.029  51.775  42.447  1.00  0.00    -0.341 N 
ATOM     22  C   UNL     1      38.295  52.487  42.735  1.00  0.00    +0.120 C 
ATOM     23  C   UNL     1      35.802  52.596  42.596  1.00  0.00    +0.138 C 
ATOM     24  C   UNL     1      38.081  53.632  43.715  1.00  0.00    +0.023 C 
ATOM     25  C   UNL     1      36.038  54.083  42.238  1.00  0.00    +0.070 C 
ATOM     26  C   UNL     1      37.119  54.683  43.153  1.00  0.00    +0.022 C 
BRANCH  25  27
ATOM     27  N   UNL     1      36.426  54.265  40.828  1.00  0.00    -0.326 NA
ATOM     28  H   UNL     1      35.580  54.166  40.245  1.00  0.00    +0.119 HD
ATOM     29  H   UNL     1      36.690  55.240  40.678  1.00  0.00    +0.119 HD
ENDBRANCH  25  27
ENDBRANCH   2  21
TORSDOF 4
ENDMDL
MODEL 4
REMARK VINA RESULT:    -7.716      4.482      8.389
REMARK INTER + INTRA:         -10.121
REMARK INTER:                  -9.087
REMARK INTRA:                  -1.034
REMARK UNBOUND:                -0.826
REMARK SMILES N#Cc1ccccc1Cn1c(N2CCC[C@@H](N)C2)nc2ccccc2c1=O
REMARK SMILES IDX 10 1 11 2 19 3 20 4 21 5 22 6 23 7 24 8 25 9 26 10 27 11
REMARK SMILES IDX 9 12 8 13 1 14 2 15 3 16 4 17 5 18 7 19 6 20 12 21 13 22
REMARK SMILES IDX 18 23 14 24 16 25 15 26 17 27
REMARK H PARENT 17 28 17 29
ROOT
ATOM      1  N   UNL     1      38.306  50.140  41.099  1.00  0.00    -0.274 N 
ATOM      2  C   UNL     1      38.598  49.685  39.819  1.00  0.00    +0.209 C 
ATOM      3  N   UNL     1      39.817  49.482  39.411  1.00  0.00    -0.214 NA
ATOM      4  C   UNL     1      40.881  49.740  40.282  1.00  0.00    +0.080 A 
ATOM      5  C   UNL     1      42.186  49.516  39.836  1.00  0.00    +0.029 A 
ATOM      6  C   UNL     1      43.278  49.757  40.676  1.00  0.00    +0.002 A 
ATOM      7  C   UNL     1      43.072  50.227  41.974  1.00  0.00    +0.001 A 
ATOM      8  C   UNL     1      41.773  50.455  42.428  1.00  0.00    +0.016 A 
ATOM      9  C   UNL     1      40.689  50.210  41.577  1.00  0.00    +0.066 A 
ATOM     10  C   UNL     1      39.305  50.425  42.026  1.00  0.00    +0.263 C 
ATOM     11  O   UNL     1      39.100  50.817  43.172  1.00  0.00    -0.268 OA
ENDROOT
BRANCH   1  12
ATOM     12  C   UNL     1      36.921  50.289  41.544  1.00  0.00    +0.166 C 
BRANCH  12  13
ATOM     13  C   UNL     1      36.499  49.351  42.673  1.00  0.00    -0.010 A 
ATOM     14  N   UNL     1      35.006  52.335  43.864  1.00  0.00    -0.192 NA
ATOM     15  C   UNL     1      35.362  51.231  43.840  1.00  0.00    +0.099 C 
ATOM     16  C   UNL     1      35.772  49.856  43.777  1.00  0.00    +0.057 A 
ATOM     17  C   UNL     1      35.416  49.009  44.839  1.00  0.00    +0.020 A 
ATOM     18  C   UNL     1      35.774  47.662  44.819  1.00  0.00    +0.001 A 
ATOM     19  C   UNL     1      36.855  47.990  42.681  1.00  0.00    +0.007 A 
ATOM     20  C   UNL     1      36.489  47.154  43.739  1.00  0.00    +0.000 A 
ENDBRANCH  12  13
ENDBRANCH   1  12
BRANCH   2  21
ATOM     21  N   UNL     1      37.548  49.438  38.950  1.00  0.00    -0.341 N 
ATOM     22  C   UNL     1      37.519  50.274  37.729  1.00  0.00    +0.120 C 
ATOM     23  C   UNL     1      37.166  48.018  38.743  1.00  0.00    +0.138 C 
ATOM     24  C   UNL     1      36.524  49.740  36.708  1.00  0.00    +0.023 C 
ATOM     25  C   UNL     1      37.574  47.493  37.346  1.00  0.00    +0.070 C 
ATOM     26  C   UNL     1      36.893  48.327  36.247  1.00  0.00    +0.022 C 
BRANCH  25  27
ATOM     27  N   UNL     1      39.034  47.508  37.146  1.00  0.00    -0.326 NA
ATOM     28  H   UNL     1      39.464  48.002  37.944  1.00  0.00    +0.119 HD
ATOM     29  H   UNL     1      39.395  46.558  37.248  1.00  0.00    +0.119 HD
ENDBRANCH  25  27
ENDBRANCH   2  21
TORSDOF 4
ENDMDL
MODEL 5
REMARK VINA RESULT:    -7.176      3.531      6.253
REMARK INTER + INTRA:          -9.470
REMARK INTER:                  -9.552
REMARK INTRA:                   0.082
REMARK UNBOUND:                -0.826
REMARK SMILES N#Cc1ccccc1Cn1c(N2CCC[C@@H](N)C2)nc2ccccc2c1=O
REMARK SMILES IDX 10 1 11 2 19 3 20 4 21 5 22 6 23 7 24 8 25 9 26 10 27 11
REMARK SMILES IDX 9 12 8 13 1 14 2 15 3 16 4 17 5 18 7 19 6 20 12 21 13 22
REMARK SMILES IDX 18 23 14 24 16 25 15 26 17 27
REMARK H PARENT 17 28 17 29
ROOT
ATOM      1  N   UNL     1      38.825  49.388  39.660  1.00  0.00    -0.274 N 
ATOM      2  C   UNL     1      39.569  50.155  38.771  1.00  0.00    +0.209 C 
ATOM      3  N   UNL     1      39.296  50.212  37.500  1.00  0.00    -0.214 NA
ATOM      4  C   UNL     1      38.224  49.467  36.997  1.00  0.00    +0.080 A 
ATOM      5  C   UNL     1      37.937  49.537  35.631  1.00  0.00    +0.029 A 
ATOM      6  C   UNL     1      36.871  48.812  35.089  1.00  0.00    +0.002 A 
ATOM      7  C   UNL     1      36.082  48.007  35.911  1.00  0.00    +0.001 A 
ATOM      8  C   UNL     1      36.361  47.928  37.275  1.00  0.00    +0.016 A 
ATOM      9  C   UNL     1      37.432  48.660  37.806  1.00  0.00    +0.066 A 
ATOM     10  C   UNL     1      37.746  48.614  39.241  1.00  0.00    +0.263 C 
ATOM     11  O   UNL     1      37.051  47.929  39.988  1.00  0.00    -0.268 OA
ENDROOT
BRANCH   1  12
ATOM     12  C   UNL     1      39.119  49.403  41.092  1.00  0.00    +0.166 C 
BRANCH  12  13
ATOM     13  C   UNL     1      37.895  49.452  42.003  1.00  0.00    -0.010 A 
ATOM     14  N   UNL     1      37.651  52.695  40.598  1.00  0.00    -0.192 NA
ATOM     15  C   UNL     1      37.421  51.784  41.279  1.00  0.00    +0.099 C 
ATOM     16  C   UNL     1      37.121  50.634  42.085  1.00  0.00    +0.057 A 
ATOM     17  C   UNL     1      36.018  50.702  42.951  1.00  0.00    +0.020 A 
ATOM     18  C   UNL     1      35.673  49.607  43.742  1.00  0.00    +0.001 A 
ATOM     19  C   UNL     1      37.531  48.365  42.819  1.00  0.00    +0.007 A 
ATOM     20  C   UNL     1      36.427  48.440  43.673  1.00  0.00    +0.000 A 
ENDBRANCH  12  13
ENDBRANCH   1  12
BRANCH   2  21
ATOM     21  N   UNL     1      40.637  50.887  39.263  1.00  0.00    -0.341 N 
ATOM     22  C   UNL     1      41.967  50.252  39.116  1.00  0.00    +0.120 C 
ATOM     23  C   UNL     1      40.615  52.352  39.026  1.00  0.00    +0.138 C 
ATOM     24  C   UNL     1      43.091  51.237  39.405  1.00  0.00    +0.023 C 
ATOM     25  C   UNL     1      41.654  52.797  37.970  1.00  0.00    +0.070 C 
ATOM     26  C   UNL     1      43.072  52.417  38.429  1.00  0.00    +0.022 C 
BRANCH  25  27
ATOM     27  N   UNL     1      41.390  52.211  36.643  1.00  0.00    -0.326 NA
ATOM     28  H   UNL     1      41.146  52.978  35.995  1.00  0.00    +0.119 HD
ATOM     29  H   UNL     1      42.266  51.858  36.254  1.00  0.00    +0.119 HD
ENDBRANCH  25  27
ENDBRANCH   2  21
TORSDOF 4
ENDMDL
MODEL 6
REMARK VINA RESULT:    -6.770      3.456      5.974
REMARK INTER + INTRA:          -8.981
REMARK INTER:                  -7.901
REMARK INTRA:                  -1.080
REMARK UNBOUND:                -0.826
REMARK SMILES N#Cc1ccccc1Cn1c(N2CCC[C@@H](N)C2)nc2ccccc2c1=O
REMARK SMILES IDX 10 1 11 2 19 3 20 4 21 5 22 6 23 7 24 8 25 9 26 10 27 11
REMARK SMILES IDX 9 12 8 13 1 14 2 15 3 16 4 17 5 18 7 19 6 20 12 21 13 22
REMARK SMILES IDX 18 23 14 24 16 25 15 26 17 27
REMARK H PARENT 17 28 17 29
ROOT
ATOM      1  N   UNL     1      39.480  50.482  40.237  1.00  0.00    -0.274 N 
ATOM      2  C   UNL     1      38.362  50.411  39.415  1.00  0.00    +0.209 C 
ATOM      3  N   UNL     1      37.326  51.181  39.579  1.00  0.00    -0.214 NA
ATOM      4  C   UNL     1      37.322  52.110  40.625  1.00  0.00    +0.080 A 
ATOM      5  C   UNL     1      36.206  52.934  40.790  1.00  0.00    +0.029 A 
ATOM      6  C   UNL     1      36.163  53.878  41.822  1.00  0.00    +0.002 A 
ATOM      7  C   UNL     1      37.240  54.004  42.700  1.00  0.00    +0.001 A 
ATOM      8  C   UNL     1      38.358  53.185  42.544  1.00  0.00    +0.016 A 
ATOM      9  C   UNL     1      38.389  52.244  41.508  1.00  0.00    +0.066 A 
ATOM     10  C   UNL     1      39.556  51.374  41.304  1.00  0.00    +0.263 C 
ATOM     11  O   UNL     1      40.525  51.483  42.051  1.00  0.00    -0.268 OA
ENDROOT
BRANCH   1  12
ATOM     12  C   UNL     1      40.654  49.649  39.980  1.00  0.00    +0.166 C 
BRANCH  12  13
ATOM     13  C   UNL     1      41.712  50.281  39.078  1.00  0.00    -0.010 A 
ATOM     14  N   UNL     1      43.620  47.573  40.332  1.00  0.00    -0.192 NA
ATOM     15  C   UNL     1      43.362  48.549  39.762  1.00  0.00    +0.099 C 
ATOM     16  C   UNL     1      43.016  49.734  39.027  1.00  0.00    +0.057 A 
ATOM     17  C   UNL     1      44.006  50.333  38.233  1.00  0.00    +0.020 A 
ATOM     18  C   UNL     1      43.718  51.475  37.486  1.00  0.00    +0.001 A 
ATOM     19  C   UNL     1      41.450  51.438  38.322  1.00  0.00    +0.007 A 
ATOM     20  C   UNL     1      42.440  52.023  37.529  1.00  0.00    +0.000 A 
ENDBRANCH  12  13
ENDBRANCH   1  12
BRANCH   2  21
ATOM     21  N   UNL     1      38.357  49.487  38.383  1.00  0.00    -0.341 N 
ATOM     22  C   UNL     1      37.453  48.330  38.567  1.00  0.00    +0.120 C 
ATOM     23  C   UNL     1      38.413  50.024  37.000  1.00  0.00    +0.138 C 
ATOM     24  C   UNL     1      37.290  47.537  37.277  1.00  0.00    +0.023 C 
ATOM     25  C   UNL     1      37.067  49.873  36.253  1.00  0.00    +0.070 C 
ATOM     26  C   UNL     1      36.672  48.389  36.166  1.00  0.00    +0.022 C 
BRANCH  25  27
ATOM     27  N   UNL     1      35.981  50.638  36.894  1.00  0.00    -0.326 NA
ATOM     28  H   UNL     1      35.166  50.012  37.001  1.00  0.00    +0.119 HD
ATOM     29  H   UNL     1      36.240  50.838  37.861  1.00  0.00    +0.119 HD
ENDBRANCH  25  27
ENDBRANCH   2  21
TORSDOF 4
ENDMDL
