MODEL 1
REMARK VINA RESULT:    -8.090      0.000      0.000
REMARK INTER + INTRA:         -12.224
REMARK INTER:                 -11.401
REMARK INTRA:                  -0.823
REMARK UNBOUND:                -0.823
REMARK SMILES Cc1cc2ncc(C(=O)NCC(C)(C)NCC(=O)N3CCC[C@H]3C#N)cn2n1
REMARK SMILES IDX 12 1 13 2 14 3 11 4 10 5 8 6 9 7 7 9 2 10 3 11 28 12 4 13
REMARK SMILES IDX 27 14 5 15 26 16 6 17 1 18 15 19 16 21 17 22 18 23 19 24
REMARK SMILES IDX 20 25 23 26 21 27 22 28 24 29 25 30
REMARK H PARENT 10 8 15 20
ROOT
ATOM      1  C   UNL     1      38.028  49.612  36.669  1.00  0.00    +0.030 C 
ATOM      2  C   UNL     1      37.674  48.201  37.170  1.00  0.00    +0.030 C 
ATOM      3  C   UNL     1      37.743  49.667  35.152  1.00  0.00    +0.030 C 
ENDROOT
BRANCH   1   4
ATOM      4  C   UNL     1      37.190  50.713  37.397  1.00  0.00    +0.138 C 
BRANCH   4   5
ATOM      5  N   UNL     1      36.780  50.373  38.753  1.00  0.00    -0.350 N 
ATOM      6  C   UNL     1      37.155  51.136  39.833  1.00  0.00    +0.254 C 
ATOM      7  O   UNL     1      37.849  52.142  39.739  1.00  0.00    -0.269 OA
ATOM      8  H   UNL     1      36.320  49.483  38.881  1.00  0.00    +0.163 HD
BRANCH   6   9
ATOM      9  C   UNL     1      36.692  50.643  41.151  1.00  0.00    +0.076 C 
ATOM     10  C   UNL     1      36.355  47.800  44.584  1.00  0.00    +0.062 A 
ATOM     11  C   UNL     1      35.567  48.957  44.739  1.00  0.00    +0.074 A 
ATOM     12  N   UNL     1      37.044  47.812  43.437  1.00  0.00    -0.172 NA
ATOM     13  C   UNL     1      35.798  49.711  43.613  1.00  0.00    +0.155 A 
ATOM     14  N   UNL     1      36.706  48.980  42.841  1.00  0.00    -0.222 N 
ATOM     15  N   UNL     1      35.319  50.929  43.216  1.00  0.00    -0.236 NA
ATOM     16  C   UNL     1      37.142  49.465  41.616  1.00  0.00    +0.130 C 
ATOM     17  C   UNL     1      35.754  51.355  42.066  1.00  0.00    +0.129 C 
ATOM     18  C   UNL     1      36.485  46.656  45.518  1.00  0.00    +0.069 C 
ENDBRANCH   6   9
ENDBRANCH   4   5
ENDBRANCH   1   4
BRANCH   1  19
ATOM     19  N   UNL     1      39.485  49.855  36.793  1.00  0.00    -0.302 NA
ATOM     20  H   UNL     1      39.946  49.020  37.166  1.00  0.00    +0.123 HD
BRANCH  19  21
ATOM     21  C   UNL     1      40.173  50.240  35.551  1.00  0.00    +0.182 C 
BRANCH  21  22
ATOM     22  C   UNL     1      40.966  51.529  35.804  1.00  0.00    +0.237 C 
ATOM     23  O   UNL     1      40.389  52.611  35.926  1.00  0.00    -0.273 OA
BRANCH  22  24
ATOM     24  N   UNL     1      42.337  51.435  35.860  1.00  0.00    -0.326 N 
ATOM     25  C   UNL     1      43.130  50.871  36.942  1.00  0.00    +0.121 C 
ATOM     26  C   UNL     1      43.174  51.967  34.788  1.00  0.00    +0.189 C 
ATOM     27  C   UNL     1      44.559  50.875  36.415  1.00  0.00    +0.025 C 
ATOM     28  C   UNL     1      44.562  52.043  35.433  1.00  0.00    +0.043 C 
ATOM     29  C   UNL     1      43.188  51.083  33.599  1.00  0.00    +0.087 C 
ATOM     30  N   UNL     1      43.238  50.383  32.673  1.00  0.00    -0.196 NA
ENDBRANCH  22  24
ENDBRANCH  21  22
ENDBRANCH  19  21
ENDBRANCH   1  19
TORSDOF 7
ENDMDL
MODEL 2
REMARK VINA RESULT:    -7.840      3.511      8.174
REMARK INTER + INTRA:         -11.872
REMARK INTER:                 -10.518
REMARK INTRA:                  -1.354
REMARK UNBOUND:                -0.823
REMARK SMILES Cc1cc2ncc(C(=O)NCC(C)(C)NCC(=O)N3CCC[C@H]3C#N)cn2n1
REMARK SMILES IDX 12 1 13 2 14 3 11 4 10 5 8 6 9 7 7 9 2 10 3 11 28 12 4 13
REMARK SMILES IDX 27 14 5 15 26 16 6 17 1 18 15 19 16 21 17 22 18 23 19 24
REMARK SMILES IDX 20 25 23 26 21 27 22 28 24 29 25 30
REMARK H PARENT 10 8 15 20
ROOT
ATOM      1  C   UNL     1      36.803  48.449  44.134  1.00  0.00    +0.030 C 
ATOM      2  C   UNL     1      36.169  47.064  43.926  1.00  0.00    +0.030 C 
ATOM      3  C   UNL     1      37.167  48.590  45.628  1.00  0.00    +0.030 C 
ENDROOT
BRANCH   1   4
ATOM      4  C   UNL     1      38.089  48.634  43.265  1.00  0.00    +0.138 C 
BRANCH   4   5
ATOM      5  N   UNL     1      37.869  48.570  41.826  1.00  0.00    -0.350 N 
ATOM      6  C   UNL     1      38.717  49.188  40.938  1.00  0.00    +0.254 C 
ATOM      7  O   UNL     1      39.704  49.828  41.282  1.00  0.00    -0.269 OA
ATOM      8  H   UNL     1      36.998  48.164  41.515  1.00  0.00    +0.163 HD
BRANCH   6   9
ATOM      9  C   UNL     1      38.341  49.064  39.510  1.00  0.00    +0.076 C 
ATOM     10  C   UNL     1      35.802  47.907  36.018  1.00  0.00    +0.062 A 
ATOM     11  C   UNL     1      37.017  48.517  35.647  1.00  0.00    +0.074 A 
ATOM     12  N   UNL     1      35.672  47.816  37.346  1.00  0.00    -0.172 NA
ATOM     13  C   UNL     1      37.655  48.811  36.828  1.00  0.00    +0.155 A 
ATOM     14  N   UNL     1      36.803  48.369  37.845  1.00  0.00    -0.222 N 
ATOM     15  N   UNL     1      38.855  49.411  37.092  1.00  0.00    -0.236 NA
ATOM     16  C   UNL     1      37.164  48.508  39.178  1.00  0.00    +0.130 C 
ATOM     17  C   UNL     1      39.156  49.530  38.352  1.00  0.00    +0.129 C 
ATOM     18  C   UNL     1      34.730  47.400  35.128  1.00  0.00    +0.069 C 
ENDBRANCH   6   9
ENDBRANCH   4   5
ENDBRANCH   1   4
BRANCH   1  19
ATOM     19  N   UNL     1      35.808  49.518  43.882  1.00  0.00    -0.302 NA
ATOM     20  H   UNL     1      34.932  49.106  43.549  1.00  0.00    +0.123 HD
BRANCH  19  21
ATOM     21  C   UNL     1      35.497  50.382  45.031  1.00  0.00    +0.182 C 
BRANCH  21  22
ATOM     22  C   UNL     1      35.445  51.839  44.554  1.00  0.00    +0.237 C 
ATOM     23  O   UNL     1      34.443  52.531  44.745  1.00  0.00    -0.273 OA
BRANCH  22  24
ATOM     24  N   UNL     1      36.540  52.332  43.882  1.00  0.00    -0.326 N 
ATOM     25  C   UNL     1      37.933  52.229  44.291  1.00  0.00    +0.121 C 
ATOM     26  C   UNL     1      36.388  53.088  42.642  1.00  0.00    +0.189 C 
ATOM     27  C   UNL     1      38.721  52.792  43.116  1.00  0.00    +0.025 C 
ATOM     28  C   UNL     1      37.745  53.782  42.487  1.00  0.00    +0.043 C 
ATOM     29  C   UNL     1      36.104  52.210  41.484  1.00  0.00    +0.087 C 
ATOM     30  N   UNL     1      35.917  51.531  40.559  1.00  0.00    -0.196 NA
ENDBRANCH  22  24
ENDBRANCH  21  22
ENDBRANCH  19  21
ENDBRANCH   1  19
TORSDOF 7
ENDMDL
MODEL 3
REMARK VINA RESULT:    -7.712      3.854      6.714
REMARK INTER + INTRA:         -11.692
REMARK INTER:                 -11.012
REMARK INTRA:                  -0.680
REMARK UNBOUND:                -0.823
REMARK SMILES Cc1cc2ncc(C(=O)NCC(C)(C)NCC(=O)N3CCC[C@H]3C#N)cn2n1
REMARK SMILES IDX 12 1 13 2 14 3 11 4 10 5 8 6 9 7 7 9 2 10 3 11 28 12 4 13
REMARK SMILES IDX 27 14 5 15 26 16 6 17 1 18 15 19 16 21 17 22 18 23 19 24
REMARK SMILES IDX 20 25 23 26 21 27 22 28 24 29 25 30
REMARK H PARENT 10 8 15 20
ROOT
ATOM      1  C   UNL     1      37.014  48.862  42.675  1.00  0.00    +0.030 C 
ATOM      2  C   UNL     1      38.140  49.516  43.493  1.00  0.00    +0.030 C 
ATOM      3  C   UNL     1      36.657  47.516  43.341  1.00  0.00    +0.030 C 
ENDROOT
BRANCH   1   4
ATOM      4  C   UNL     1      35.741  49.768  42.613  1.00  0.00    +0.138 C 
BRANCH   4   5
ATOM      5  N   UNL     1      35.425  50.464  43.854  1.00  0.00    -0.350 N 
ATOM      6  C   UNL     1      34.990  51.767  43.860  1.00  0.00    +0.254 C 
ATOM      7  O   UNL     1      34.838  52.432  42.840  1.00  0.00    -0.269 OA
ATOM      8  H   UNL     1      35.662  49.991  44.715  1.00  0.00    +0.163 HD
BRANCH   6   9
ATOM      9  C   UNL     1      34.745  52.349  45.199  1.00  0.00    +0.076 C 
ATOM     10  C   UNL     1      34.048  55.582  48.206  1.00  0.00    +0.062 A 
ATOM     11  C   UNL     1      34.105  54.294  48.775  1.00  0.00    +0.074 A 
ATOM     12  N   UNL     1      34.207  55.552  46.879  1.00  0.00    -0.172 NA
ATOM     13  C   UNL     1      34.311  53.437  47.721  1.00  0.00    +0.155 A 
ATOM     14  N   UNL     1      34.368  54.241  46.578  1.00  0.00    -0.222 N 
ATOM     15  N   UNL     1      34.441  52.077  47.662  1.00  0.00    -0.236 NA
ATOM     16  C   UNL     1      34.582  53.677  45.328  1.00  0.00    +0.130 C 
ATOM     17  C   UNL     1      34.634  51.584  46.474  1.00  0.00    +0.129 C 
ATOM     18  C   UNL     1      33.834  56.875  48.901  1.00  0.00    +0.069 C 
ENDBRANCH   6   9
ENDBRANCH   4   5
ENDBRANCH   1   4
BRANCH   1  19
ATOM     19  N   UNL     1      37.500  48.501  41.322  1.00  0.00    -0.302 NA
ATOM     20  H   UNL     1      37.082  47.614  41.028  1.00  0.00    +0.123 HD
BRANCH  19  21
ATOM     21  C   UNL     1      37.246  49.496  40.268  1.00  0.00    +0.182 C 
BRANCH  21  22
ATOM     22  C   UNL     1      38.182  49.213  39.086  1.00  0.00    +0.237 C 
ATOM     23  O   UNL     1      39.405  49.278  39.219  1.00  0.00    -0.273 OA
BRANCH  22  24
ATOM     24  N   UNL     1      37.607  48.916  37.872  1.00  0.00    -0.326 N 
ATOM     25  C   UNL     1      37.041  47.639  37.463  1.00  0.00    +0.121 C 
ATOM     26  C   UNL     1      37.550  49.908  36.801  1.00  0.00    +0.189 C 
ATOM     27  C   UNL     1      36.407  47.916  36.107  1.00  0.00    +0.025 C 
ATOM     28  C   UNL     1      37.250  49.063  35.558  1.00  0.00    +0.043 C 
ATOM     29  C   UNL     1      36.488  50.915  37.029  1.00  0.00    +0.087 C 
ATOM     30  N   UNL     1      35.635  51.692  37.175  1.00  0.00    -0.196 NA
ENDBRANCH  22  24
ENDBRANCH  21  22
ENDBRANCH  19  21
ENDBRANCH   1  19
TORSDOF 7
ENDMDL
MODEL 4
REMARK VINA RESULT:    -7.511      3.395      9.385
REMARK INTER + INTRA:         -11.407
REMARK INTER:                 -10.495
REMARK INTRA:                  -0.913
REMARK UNBOUND:                -0.823
REMARK SMILES Cc1cc2ncc(C(=O)NCC(C)(C)NCC(=O)N3CCC[C@H]3C#N)cn2n1
REMARK SMILES IDX 12 1 13 2 14 3 11 4 10 5 8 6 9 7 7 9 2 10 3 11 28 12 4 13
REMARK SMILES IDX 27 14 5 15 26 16 6 17 1 18 15 19 16 21 17 22 18 23 19 24
REMARK SMILES IDX 20 25 23 26 21 27 22 28 24 29 25 30
REMARK H PARENT 10 8 15 20
ROOT
ATOM      1  C   UNL     1      37.371  49.661  43.856  1.00  0.00    +0.030 C 
ATOM      2  C   UNL     1      36.566  48.677  44.722  1.00  0.00    +0.030 C 
ATOM      3  C   UNL     1      38.056  50.676  44.796  1.00  0.00    +0.030 C 
ENDROOT
BRANCH   1   4
ATOM      4  C   UNL     1      38.456  48.928  43.001  1.00  0.00    +0.138 C 
BRANCH   4   5
ATOM      5  N   UNL     1      38.151  48.830  41.580  1.00  0.00    -0.350 N 
ATOM      6  C   UNL     1      39.017  49.299  40.621  1.00  0.00    +0.254 C 
ATOM      7  O   UNL     1      40.092  49.827  40.885  1.00  0.00    -0.269 OA
ATOM      8  H   UNL     1      37.221  48.522  41.333  1.00  0.00    +0.163 HD
BRANCH   6   9
ATOM      9  C   UNL     1      38.551  49.162  39.222  1.00  0.00    +0.076 C 
ATOM     10  C   UNL     1      35.784  47.993  35.912  1.00  0.00    +0.062 A 
ATOM     11  C   UNL     1      36.980  48.583  35.457  1.00  0.00    +0.074 A 
ATOM     12  N   UNL     1      35.736  47.922  37.246  1.00  0.00    -0.172 NA
ATOM     13  C   UNL     1      37.695  48.883  36.592  1.00  0.00    +0.155 A 
ATOM     14  N   UNL     1      36.903  48.466  37.666  1.00  0.00    -0.222 N 
ATOM     15  N   UNL     1      38.917  49.471  36.772  1.00  0.00    -0.236 NA
ATOM     16  C   UNL     1      37.349  48.617  38.972  1.00  0.00    +0.130 C 
ATOM     17  C   UNL     1      39.298  49.602  38.009  1.00  0.00    +0.129 C 
ATOM     18  C   UNL     1      34.652  47.489  35.097  1.00  0.00    +0.069 C 
ENDBRANCH   6   9
ENDBRANCH   4   5
ENDBRANCH   1   4
BRANCH   1  19
ATOM     19  N   UNL     1      36.462  50.475  43.014  1.00  0.00    -0.302 NA
ATOM     20  H   UNL     1      35.493  50.181  43.165  1.00  0.00    +0.123 HD
BRANCH  19  21
ATOM     21  C   UNL     1      36.534  51.929  43.222  1.00  0.00    +0.182 C 
BRANCH  21  22
ATOM     22  C   UNL     1      35.127  52.454  43.536  1.00  0.00    +0.237 C 
ATOM     23  O   UNL     1      34.295  52.606  42.640  1.00  0.00    -0.273 OA
BRANCH  22  24
ATOM     24  N   UNL     1      34.842  52.776  44.843  1.00  0.00    -0.326 N 
ATOM     25  C   UNL     1      34.919  51.891  45.996  1.00  0.00    +0.121 C 
ATOM     26  C   UNL     1      34.364  54.107  45.206  1.00  0.00    +0.189 C 
ATOM     27  C   UNL     1      34.658  52.795  47.193  1.00  0.00    +0.025 C 
ATOM     28  C   UNL     1      33.782  53.900  46.608  1.00  0.00    +0.043 C 
ATOM     29  C   UNL     1      35.457  55.107  45.225  1.00  0.00    +0.087 C 
ATOM     30  N   UNL     1      36.309  55.895  45.280  1.00  0.00    -0.196 NA
ENDBRANCH  22  24
ENDBRANCH  21  22
ENDBRANCH  19  21
ENDBRANCH   1  19
TORSDOF 7
ENDMDL
MODEL 5
REMARK VINA RESULT:    -7.190      3.602      8.353
REMARK INTER + INTRA:         -10.956
REMARK INTER:                  -9.662
REMARK INTRA:                  -1.294
REMARK UNBOUND:                -0.823
REMARK SMILES Cc1cc2ncc(C(=O)NCC(C)(C)NCC(=O)N3CCC[C@H]3C#N)cn2n1
REMARK SMILES IDX 12 1 13 2 14 3 11 4 10 5 8 6 9 7 7 9 2 10 3 11 28 12 4 13
REMARK SMILES IDX 27 14 5 15 26 16 6 17 1 18 15 19 16 21 17 22 18 23 19 24
REMARK SMILES IDX 20 25 23 26 21 27 22 28 24 29 25 30
REMARK H PARENT 10 8 15 20
ROOT
ATOM      1  C   UNL     1      36.495  53.552  42.843  1.00  0.00    +0.030 C 
ATOM      2  C   UNL     1      36.373  55.085  42.816  1.00  0.00    +0.030 C 
ATOM      3  C   UNL     1      35.356  52.966  41.981  1.00  0.00    +0.030 C 
ENDROOT
BRANCH   1   4
ATOM      4  C   UNL     1      37.873  53.070  42.284  1.00  0.00    +0.138 C 
BRANCH   4   5
ATOM      5  N   UNL     1      37.795  51.979  41.322  1.00  0.00    -0.350 N 
ATOM      6  C   UNL     1      38.655  51.896  40.253  1.00  0.00    +0.254 C 
ATOM      7  O   UNL     1      39.536  52.719  40.031  1.00  0.00    -0.269 OA
ATOM      8  H   UNL     1      37.002  51.358  41.400  1.00  0.00    +0.163 HD
BRANCH   6   9
ATOM      9  C   UNL     1      38.428  50.750  39.342  1.00  0.00    +0.076 C 
ATOM     10  C   UNL     1      36.205  48.219  36.404  1.00  0.00    +0.062 A 
ATOM     11  C   UNL     1      37.457  47.683  36.767  1.00  0.00    +0.074 A 
ATOM     12  N   UNL     1      35.960  49.381  37.017  1.00  0.00    -0.172 NA
ATOM     13  C   UNL     1      37.997  48.583  37.654  1.00  0.00    +0.155 A 
ATOM     14  N   UNL     1      37.055  49.609  37.783  1.00  0.00    -0.222 N 
ATOM     15  N   UNL     1      39.187  48.599  38.328  1.00  0.00    -0.236 NA
ATOM     16  C   UNL     1      37.291  50.683  38.629  1.00  0.00    +0.130 C 
ATOM     17  C   UNL     1      39.376  49.624  39.106  1.00  0.00    +0.129 C 
ATOM     18  C   UNL     1      35.211  47.649  35.462  1.00  0.00    +0.069 C 
ENDBRANCH   6   9
ENDBRANCH   4   5
ENDBRANCH   1   4
BRANCH   1  19
ATOM     19  N   UNL     1      36.243  53.036  44.210  1.00  0.00    -0.302 NA
ATOM     20  H   UNL     1      35.273  52.720  44.288  1.00  0.00    +0.123 HD
BRANCH  19  21
ATOM     21  C   UNL     1      37.117  51.937  44.646  1.00  0.00    +0.182 C 
BRANCH  21  22
ATOM     22  C   UNL     1      36.291  50.645  44.711  1.00  0.00    +0.237 C 
ATOM     23  O   UNL     1      35.063  50.675  44.616  1.00  0.00    -0.273 OA
BRANCH  22  24
ATOM     24  N   UNL     1      36.968  49.463  44.908  1.00  0.00    -0.326 N 
ATOM     25  C   UNL     1      36.727  48.484  45.957  1.00  0.00    +0.121 C 
ATOM     26  C   UNL     1      38.089  49.083  44.052  1.00  0.00    +0.189 C 
ATOM     27  C   UNL     1      37.636  47.314  45.608  1.00  0.00    +0.025 C 
ATOM     28  C   UNL     1      38.785  47.981  44.857  1.00  0.00    +0.043 C 
ATOM     29  C   UNL     1      37.639  48.577  42.735  1.00  0.00    +0.087 C 
ATOM     30  N   UNL     1      37.301  48.143  41.710  1.00  0.00    -0.196 NA
ENDBRANCH  22  24
ENDBRANCH  21  22
ENDBRANCH  19  21
ENDBRANCH   1  19
TORSDOF 7
ENDMDL
MODEL 6
REMARK VINA RESULT:    -6.264      4.658     10.834
REMARK INTER + INTRA:          -9.650
REMARK INTER:                  -8.978
REMARK INTRA:                  -0.672
REMARK UNBOUND:                -0.823
REMARK SMILES Cc1cc2ncc(C(=O)NCC(C)(C)NCC(=O)N3CCC[C@H]3C#N)cn2n1
REMARK SMILES IDX 12 1 13 2 14 3 11 4 10 5 8 6 9 7 7 9 2 10 3 11 28 12 4 13
REMARK SMILES IDX 27 14 5 15 26 16 6 17 1 18 15 19 16 21 17 22 18 23 19 24
REMARK SMILES IDX 20 25 23 26 21 27 22 28 24 29 25 30
REMARK H PARENT 10 8 15 20
ROOT
ATOM      1  C   UNL     1      40.173  49.314  45.254  1.00  0.00    +0.030 C 
ATOM      2  C   UNL     1      41.290  48.279  45.037  1.00  0.00    +0.030 C 
ATOM      3  C   UNL     1      40.638  50.654  44.645  1.00  0.00    +0.030 C 
ENDROOT
BRANCH   1   4
ATOM      4  C   UNL     1      38.834  48.872  44.580  1.00  0.00    +0.138 C 
BRANCH   4   5
ATOM      5  N   UNL     1      38.820  48.963  43.126  1.00  0.00    -0.350 N 
ATOM      6  C   UNL     1      37.733  48.563  42.387  1.00  0.00    +0.254 C 
ATOM      7  O   UNL     1      36.710  48.107  42.887  1.00  0.00    -0.269 OA
ATOM      8  H   UNL     1      39.691  49.211  42.677  1.00  0.00    +0.163 HD
BRANCH   6   9
ATOM      9  C   UNL     1      37.884  48.683  40.919  1.00  0.00    +0.076 C 
ATOM     10  C   UNL     1      36.714  48.274  36.624  1.00  0.00    +0.062 A 
ATOM     11  C   UNL     1      37.999  48.824  36.802  1.00  0.00    +0.074 A 
ATOM     12  N   UNL     1      36.119  48.001  37.790  1.00  0.00    -0.172 NA
ATOM     13  C   UNL     1      38.185  48.886  38.162  1.00  0.00    +0.155 A 
ATOM     14  N   UNL     1      37.016  48.375  38.734  1.00  0.00    -0.222 N 
ATOM     15  N   UNL     1      39.231  49.334  38.921  1.00  0.00    -0.236 NA
ATOM     16  C   UNL     1      36.885  48.285  40.113  1.00  0.00    +0.130 C 
ATOM     17  C   UNL     1      39.070  49.241  40.208  1.00  0.00    +0.129 C 
ATOM     18  C   UNL     1      36.011  47.998  35.347  1.00  0.00    +0.069 C 
ENDBRANCH   6   9
ENDBRANCH   4   5
ENDBRANCH   1   4
BRANCH   1  19
ATOM     19  N   UNL     1      39.999  49.593  46.699  1.00  0.00    -0.302 NA
ATOM     20  H   UNL     1      40.125  50.593  46.878  1.00  0.00    +0.123 HD
BRANCH  19  21
ATOM     21  C   UNL     1      38.707  49.186  47.274  1.00  0.00    +0.182 C 
BRANCH  21  22
ATOM     22  C   UNL     1      38.882  48.977  48.784  1.00  0.00    +0.237 C 
ATOM     23  O   UNL     1      39.367  47.934  49.225  1.00  0.00    -0.273 OA
BRANCH  22  24
ATOM     24  N   UNL     1      38.451  49.979  49.622  1.00  0.00    -0.326 N 
ATOM     25  C   UNL     1      38.989  51.328  49.718  1.00  0.00    +0.121 C 
ATOM     26  C   UNL     1      37.375  49.750  50.583  1.00  0.00    +0.189 C 
ATOM     27  C   UNL     1      38.047  52.051  50.671  1.00  0.00    +0.025 C 
ATOM     28  C   UNL     1      37.518  50.926  51.555  1.00  0.00    +0.043 C 
ATOM     29  C   UNL     1      36.041  49.750  49.938  1.00  0.00    +0.087 C 
ATOM     30  N   UNL     1      34.986  49.785  49.453  1.00  0.00    -0.196 NA
ENDBRANCH  22  24
ENDBRANCH  21  22
ENDBRANCH  19  21
ENDBRANCH   1  19
TORSDOF 7
ENDMDL
MODEL 7
REMARK VINA RESULT:    -5.552      4.998     10.703
REMARK INTER + INTRA:          -8.647
REMARK INTER:                  -8.100
REMARK INTRA:                  -0.547
REMARK UNBOUND:                -0.823
REMARK SMILES Cc1cc2ncc(C(=O)NCC(C)(C)NCC(=O)N3CCC[C@H]3C#N)cn2n1
REMARK SMILES IDX 12 1 13 2 14 3 11 4 10 5 8 6 9 7 7 9 2 10 3 11 28 12 4 13
REMARK SMILES IDX 27 14 5 15 26 16 6 17 1 18 15 19 16 21 17 22 18 23 19 24
REMARK SMILES IDX 20 25 23 26 21 27 22 28 24 29 25 30
REMARK H PARENT 10 8 15 20
ROOT
ATOM      1  C   UNL     1      40.343  49.660  45.241  1.00  0.00    +0.030 C 
ATOM      2  C   UNL     1      41.346  48.610  44.733  1.00  0.00    +0.030 C 
ATOM      3  C   UNL     1      40.770  51.037  44.687  1.00  0.00    +0.030 C 
ENDROOT
BRANCH   1   4
ATOM      4  C   UNL     1      38.885  49.341  44.779  1.00  0.00    +0.138 C 
BRANCH   4   5
ATOM      5  N   UNL     1      38.618  49.604  43.371  1.00  0.00    -0.350 N 
ATOM      6  C   UNL     1      37.623  48.946  42.689  1.00  0.00    +0.254 C 
ATOM      7  O   UNL     1      36.898  48.101  43.204  1.00  0.00    -0.269 OA
ATOM      8  H   UNL     1      39.277  50.195  42.884  1.00  0.00    +0.163 HD
BRANCH   6   9
ATOM      9  C   UNL     1      37.497  49.294  41.255  1.00  0.00    +0.076 C 
ATOM     10  C   UNL     1      36.525  48.642  36.941  1.00  0.00    +0.062 A 
ATOM     11  C   UNL     1      37.063  49.917  37.204  1.00  0.00    +0.074 A 
ATOM     12  N   UNL     1      36.414  47.905  38.051  1.00  0.00    -0.172 NA
ATOM     13  C   UNL     1      37.290  49.946  38.560  1.00  0.00    +0.155 A 
ATOM     14  N   UNL     1      36.880  48.699  39.044  1.00  0.00    -0.222 N 
ATOM     15  N   UNL     1      37.789  50.918  39.381  1.00  0.00    -0.236 NA
ATOM     16  C   UNL     1      36.990  48.396  40.394  1.00  0.00    +0.130 C 
ATOM     17  C   UNL     1      37.871  50.600  40.640  1.00  0.00    +0.129 C 
ATOM     18  C   UNL     1      36.094  48.089  35.634  1.00  0.00    +0.069 C 
ENDBRANCH   6   9
ENDBRANCH   4   5
ENDBRANCH   1   4
BRANCH   1  19
ATOM     19  N   UNL     1      40.438  49.796  46.714  1.00  0.00    -0.302 NA
ATOM     20  H   UNL     1      39.525  49.616  47.139  1.00  0.00    +0.123 HD
BRANCH  19  21
ATOM     21  C   UNL     1      41.426  48.926  47.371  1.00  0.00    +0.182 C 
BRANCH  21  22
ATOM     22  C   UNL     1      41.454  49.254  48.869  1.00  0.00    +0.237 C 
ATOM     23  O   UNL     1      42.306  50.013  49.334  1.00  0.00    -0.273 OA
BRANCH  22  24
ATOM     24  N   UNL     1      40.516  48.648  49.674  1.00  0.00    -0.326 N 
ATOM     25  C   UNL     1      40.573  47.301  50.220  1.00  0.00    +0.121 C 
ATOM     26  C   UNL     1      39.279  49.334  50.039  1.00  0.00    +0.189 C 
ATOM     27  C   UNL     1      39.376  47.213  51.155  1.00  0.00    +0.025 C 
ATOM     28  C   UNL     1      38.384  48.196  50.541  1.00  0.00    +0.043 C 
ATOM     29  C   UNL     1      39.494  50.349  51.096  1.00  0.00    +0.087 C 
ATOM     30  N   UNL     1      39.639  51.123  51.951  1.00  0.00    -0.196 NA
ENDBRANCH  22  24
ENDBRANCH  21  22
ENDBRANCH  19  21
ENDBRANCH   1  19
TORSDOF 7
ENDMDL
