REMARK SMILES CC(C)[C@H](N)C(=O)N1CCCC1
REMARK SMILES IDX 4 1 2 2 1 3 3 4 5 5 6 8 7 9 8 10 9 11 12 12 10 13 11 14
REMARK H PARENT 5 6 5 7
ROOT
ATOM      1  C   UNL     1      -1.171   0.369   1.313  1.00  0.00    +0.144 C 
ENDROOT
BRANCH   1   2
ATOM      2  C   UNL     1      -2.332   0.016   0.349  1.00  0.00    +0.009 C 
ATOM      3  C   UNL     1      -2.852  -1.407   0.589  1.00  0.00    +0.009 C 
ATOM      4  C   UNL     1      -2.011   0.193  -1.137  1.00  0.00    +0.009 C 
ENDBRANCH   1   2
BRANCH   1   5
ATOM      5  N   UNL     1      -0.848   1.813   1.307  1.00  0.00    -0.320 NA
ATOM      6  H   UNL     1      -1.589   2.306   1.806  1.00  0.00    +0.119 HD
ATOM      7  H   UNL     1      -0.892   2.171   0.356  1.00  0.00    +0.119 HD
ENDBRANCH   1   5
BRANCH   1   8
ATOM      8  C   UNL     1       0.069  -0.558   1.165  1.00  0.00    +0.239 C 
ATOM      9  O   UNL     1       0.056  -1.647   1.758  1.00  0.00    -0.273 OA
ATOM     10  N   UNL     1       1.133  -0.241   0.349  1.00  0.00    -0.341 N 
ATOM     11  C   UNL     1       2.261  -1.155   0.248  1.00  0.00    +0.119 C 
ATOM     12  C   UNL     1       1.410   0.994  -0.365  1.00  0.00    +0.119 C 
ATOM     13  C   UNL     1       3.380  -0.335  -0.377  1.00  0.00    +0.023 C 
ATOM     14  C   UNL     1       2.622   0.671  -1.229  1.00  0.00    +0.023 C 
ENDBRANCH   1   8
TORSDOF 3
