MODEL 1
REMARK VINA RESULT:    -5.618      0.000      0.000
REMARK INTER + INTRA:          -6.496
REMARK INTER:                  -6.439
REMARK INTRA:                  -0.057
REMARK UNBOUND:                -0.057
REMARK SMILES CC(C)[C@H](N)C(=O)N1CCCC1
REMARK SMILES IDX 4 1 2 2 1 3 3 4 5 5 6 8 7 9 8 10 9 11 12 12 10 13 11 14
REMARK H PARENT 5 6 5 7
ROOT
ATOM      1  C   UNL     1      36.880  49.726  36.812  1.00  0.00    +0.144 C 
ENDROOT
BRANCH   1   2
ATOM      2  C   UNL     1      36.441  48.242  36.902  1.00  0.00    +0.009 C 
ATOM      3  C   UNL     1      37.620  47.325  37.251  1.00  0.00    +0.009 C 
ATOM      4  C   UNL     1      35.732  47.704  35.657  1.00  0.00    +0.009 C 
ENDBRANCH   1   2
BRANCH   1   5
ATOM      5  N   UNL     1      35.734  50.647  36.642  1.00  0.00    -0.320 NA
ATOM      6  H   UNL     1      35.729  50.971  35.675  1.00  0.00    +0.119 HD
ATOM      7  H   UNL     1      35.883  51.486  37.197  1.00  0.00    +0.119 HD
ENDBRANCH   1   5
BRANCH   1   8
ATOM      8  C   UNL     1      38.046  49.974  35.813  1.00  0.00    +0.239 C 
ATOM      9  O   UNL     1      37.771  50.057  34.607  1.00  0.00    -0.273 OA
ATOM     10  N   UNL     1      39.344  50.173  36.230  1.00  0.00    -0.341 N 
ATOM     11  C   UNL     1      40.389  50.407  35.245  1.00  0.00    +0.119 C 
ATOM     12  C   UNL     1      39.915  50.038  37.560  1.00  0.00    +0.119 C 
ATOM     13  C   UNL     1      41.695  50.177  35.991  1.00  0.00    +0.023 C 
ATOM     14  C   UNL     1      41.337  50.563  37.418  1.00  0.00    +0.023 C 
ENDBRANCH   1   8
TORSDOF 3
ENDMDL
MODEL 2
REMARK VINA RESULT:    -4.971      2.202      4.261
REMARK INTER + INTRA:          -5.754
REMARK INTER:                  -5.616
REMARK INTRA:                  -0.139
REMARK UNBOUND:                -0.057
REMARK SMILES CC(C)[C@H](N)C(=O)N1CCCC1
REMARK SMILES IDX 4 1 2 2 1 3 3 4 5 5 6 8 7 9 8 10 9 11 12 12 10 13 11 14
REMARK H PARENT 5 6 5 7
ROOT
ATOM      1  C   UNL     1      38.949  50.156  35.817  1.00  0.00    +0.144 C 
ENDROOT
BRANCH   1   2
ATOM      2  C   UNL     1      40.486  50.061  35.637  1.00  0.00    +0.009 C 
ATOM      3  C   UNL     1      41.159  49.426  36.860  1.00  0.00    +0.009 C 
ATOM      4  C   UNL     1      41.179  51.386  35.310  1.00  0.00    +0.009 C 
ENDBRANCH   1   2
BRANCH   1   5
ATOM      5  N   UNL     1      38.284  50.817  34.672  1.00  0.00    -0.320 NA
ATOM      6  H   UNL     1      38.574  50.339  33.818  1.00  0.00    +0.119 HD
ATOM      7  H   UNL     1      38.636  51.766  34.571  1.00  0.00    +0.119 HD
ENDBRANCH   1   5
BRANCH   1   8
ATOM      8  C   UNL     1      38.515  50.707  37.205  1.00  0.00    +0.239 C 
ATOM      9  O   UNL     1      38.604  51.928  37.402  1.00  0.00    -0.273 OA
ATOM     10  N   UNL     1      37.974  49.899  38.182  1.00  0.00    -0.341 N 
ATOM     11  C   UNL     1      37.580  50.477  39.458  1.00  0.00    +0.119 C 
ATOM     12  C   UNL     1      37.851  48.451  38.216  1.00  0.00    +0.119 C 
ATOM     13  C   UNL     1      37.423  49.290  40.398  1.00  0.00    +0.023 C 
ATOM     14  C   UNL     1      37.013  48.169  39.456  1.00  0.00    +0.023 C 
ENDBRANCH   1   8
TORSDOF 3
ENDMDL
MODEL 3
REMARK VINA RESULT:    -4.698      1.954      4.746
REMARK INTER + INTRA:          -5.441
REMARK INTER:                  -5.457
REMARK INTRA:                   0.016
REMARK UNBOUND:                -0.057
REMARK SMILES CC(C)[C@H](N)C(=O)N1CCCC1
REMARK SMILES IDX 4 1 2 2 1 3 3 4 5 5 6 8 7 9 8 10 9 11 12 12 10 13 11 14
REMARK H PARENT 5 6 5 7
ROOT
ATOM      1  C   UNL     1      40.625  50.534  36.240  1.00  0.00    +0.144 C 
ENDROOT
BRANCH   1   2
ATOM      2  C   UNL     1      40.090  51.858  36.843  1.00  0.00    +0.009 C 
ATOM      3  C   UNL     1      40.831  53.076  36.278  1.00  0.00    +0.009 C 
ATOM      4  C   UNL     1      40.105  51.921  38.372  1.00  0.00    +0.009 C 
ENDBRANCH   1   2
BRANCH   1   5
ATOM      5  N   UNL     1      40.683  50.567  34.762  1.00  0.00    -0.320 NA
ATOM      6  H   UNL     1      41.211  51.395  34.483  1.00  0.00    +0.119 HD
ATOM      7  H   UNL     1      39.750  50.715  34.384  1.00  0.00    +0.119 HD
ENDBRANCH   1   5
BRANCH   1   8
ATOM      8  C   UNL     1      39.944  49.262  36.819  1.00  0.00    +0.239 C 
ATOM      9  O   UNL     1      40.622  48.515  37.539  1.00  0.00    -0.273 OA
ATOM     10  N   UNL     1      38.609  48.984  36.618  1.00  0.00    -0.341 N 
ATOM     11  C   UNL     1      38.029  47.780  37.193  1.00  0.00    +0.119 C 
ATOM     12  C   UNL     1      37.649  49.652  35.755  1.00  0.00    +0.119 C 
ATOM     13  C   UNL     1      36.711  47.585  36.457  1.00  0.00    +0.023 C 
ATOM     14  C   UNL     1      36.313  49.009  36.101  1.00  0.00    +0.023 C 
ENDBRANCH   1   8
TORSDOF 3
ENDMDL
MODEL 4
REMARK VINA RESULT:    -4.030      2.035      4.868
REMARK INTER + INTRA:          -4.676
REMARK INTER:                  -4.879
REMARK INTRA:                   0.203
REMARK UNBOUND:                -0.057
REMARK SMILES CC(C)[C@H](N)C(=O)N1CCCC1
REMARK SMILES IDX 4 1 2 2 1 3 3 4 5 5 6 8 7 9 8 10 9 11 12 12 10 13 11 14
REMARK H PARENT 5 6 5 7
ROOT
ATOM      1  C   UNL     1      41.444  49.563  36.010  1.00  0.00    +0.144 C 
ENDROOT
BRANCH   1   2
ATOM      2  C   UNL     1      42.242  50.411  37.032  1.00  0.00    +0.009 C 
ATOM      3  C   UNL     1      43.572  50.900  36.443  1.00  0.00    +0.009 C 
ATOM      4  C   UNL     1      42.505  49.723  38.373  1.00  0.00    +0.009 C 
ENDBRANCH   1   2
BRANCH   1   5
ATOM      5  N   UNL     1      41.276  50.250  34.710  1.00  0.00    -0.320 NA
ATOM      6  H   UNL     1      42.198  50.538  34.382  1.00  0.00    +0.119 HD
ATOM      7  H   UNL     1      40.765  51.119  34.845  1.00  0.00    +0.119 HD
ENDBRANCH   1   5
BRANCH   1   8
ATOM      8  C   UNL     1      40.129  48.964  36.585  1.00  0.00    +0.239 C 
ATOM      9  O   UNL     1      40.156  47.799  37.009  1.00  0.00    -0.273 OA
ATOM     10  N   UNL     1      38.972  49.704  36.702  1.00  0.00    -0.341 N 
ATOM     11  C   UNL     1      37.776  49.087  37.256  1.00  0.00    +0.119 C 
ATOM     12  C   UNL     1      38.677  51.037  36.205  1.00  0.00    +0.119 C 
ATOM     13  C   UNL     1      36.636  50.017  36.867  1.00  0.00    +0.023 C 
ATOM     14  C   UNL     1      37.318  51.374  36.803  1.00  0.00    +0.023 C 
ENDBRANCH   1   8
TORSDOF 3
ENDMDL
MODEL 5
REMARK VINA RESULT:    -3.330      2.676      4.078
REMARK INTER + INTRA:          -3.873
REMARK INTER:                  -3.799
REMARK INTRA:                  -0.074
REMARK UNBOUND:                -0.057
REMARK SMILES CC(C)[C@H](N)C(=O)N1CCCC1
REMARK SMILES IDX 4 1 2 2 1 3 3 4 5 5 6 8 7 9 8 10 9 11 12 12 10 13 11 14
REMARK H PARENT 5 6 5 7
ROOT
ATOM      1  C   UNL     1      39.663  49.545  36.573  1.00  0.00    +0.144 C 
ENDROOT
BRANCH   1   2
ATOM      2  C   UNL     1      40.165  50.509  35.468  1.00  0.00    +0.009 C 
ATOM      3  C   UNL     1      41.533  50.079  34.923  1.00  0.00    +0.009 C 
ATOM      4  C   UNL     1      40.225  51.983  35.878  1.00  0.00    +0.009 C 
ENDBRANCH   1   2
BRANCH   1   5
ATOM      5  N   UNL     1      38.311  49.015  36.292  1.00  0.00    -0.320 NA
ATOM      6  H   UNL     1      38.318  48.608  35.356  1.00  0.00    +0.119 HD
ATOM      7  H   UNL     1      37.646  49.783  36.236  1.00  0.00    +0.119 HD
ENDBRANCH   1   5
BRANCH   1   8
ATOM      8  C   UNL     1      39.838  50.101  38.015  1.00  0.00    +0.239 C 
ATOM      9  O   UNL     1      38.863  50.651  38.550  1.00  0.00    -0.273 OA
ATOM     10  N   UNL     1      41.004  49.938  38.732  1.00  0.00    -0.341 N 
ATOM     11  C   UNL     1      41.102  50.476  40.080  1.00  0.00    +0.119 C 
ATOM     12  C   UNL     1      42.287  49.415  38.295  1.00  0.00    +0.119 C 
ATOM     13  C   UNL     1      42.590  50.482  40.397  1.00  0.00    +0.023 C 
ATOM     14  C   UNL     1      43.113  49.317  39.571  1.00  0.00    +0.023 C 
ENDBRANCH   1   8
TORSDOF 3
ENDMDL
