REMARK SMILES NC(Cc1ccc(O)cc1)C(=O)N1CCCC1
REMARK SMILES IDX 3 1 2 2 1 3 11 6 12 7 13 8 14 9 17 10 15 11 16 12 4 13 5 14
REMARK SMILES IDX 10 15 6 16 9 17 7 18 8 19
REMARK H PARENT 1 4 1 5 8 20
ROOT
ATOM      1  C   UNL     1      -1.156  -1.725   1.514  1.00  0.00    +0.064 C 
ENDROOT
BRANCH   1   2
ATOM      2  C   UNL     1       0.352  -2.001   1.354  1.00  0.00    +0.145 C 
BRANCH   2   3
ATOM      3  N   UNL     1       0.720  -2.688   0.096  1.00  0.00    -0.320 NA
ATOM      4  H   UNL     1       0.210  -3.567   0.039  1.00  0.00    +0.119 HD
ATOM      5  H   UNL     1       1.709  -2.933   0.147  1.00  0.00    +0.119 HD
ENDBRANCH   2   3
BRANCH   2   6
ATOM      6  C   UNL     1       1.196  -0.744   1.668  1.00  0.00    +0.239 C 
ATOM      7  O   UNL     1       1.399  -0.457   2.856  1.00  0.00    -0.273 OA
ATOM      8  N   UNL     1       1.677   0.071   0.669  1.00  0.00    -0.341 N 
ATOM      9  C   UNL     1       1.490  -0.043  -0.772  1.00  0.00    +0.119 C 
ATOM     10  C   UNL     1       2.423   1.273   0.999  1.00  0.00    +0.119 C 
ATOM     11  C   UNL     1       1.866   1.332  -1.311  1.00  0.00    +0.023 C 
ATOM     12  C   UNL     1       2.940   1.790  -0.335  1.00  0.00    +0.023 C 
ENDBRANCH   2   6
ENDBRANCH   1   2
BRANCH   1  13
ATOM     13  C   UNL     1      -1.772  -0.725   0.565  1.00  0.00    -0.046 A 
ATOM     14  C   UNL     1      -2.286  -1.137  -0.672  1.00  0.00    +0.007 A 
ATOM     15  C   UNL     1      -1.830   0.635   0.908  1.00  0.00    +0.007 A 
ATOM     16  C   UNL     1      -2.843  -0.206  -1.551  1.00  0.00    +0.046 A 
ATOM     17  C   UNL     1      -2.388   1.566   0.029  1.00  0.00    +0.046 A 
ATOM     18  C   UNL     1      -2.890   1.136  -1.194  1.00  0.00    +0.115 A 
BRANCH  18  19
ATOM     19  O   UNL     1      -3.441   2.011  -2.083  1.00  0.00    -0.508 OA
ATOM     20  H   UNL     1      -3.429   2.898  -1.688  1.00  0.00    +0.293 HD
ENDBRANCH  18  19
ENDBRANCH   1  13
TORSDOF 5
